  13  13   1   0
  0.1842872E+02  0.6971366E-09  0.6971366E-09  0.6971366E-09  0.5000000E-15
  1.000000000000000E-004
  CAR 
 unknown system                          
     12.34809027    -45.69118074  301      1.56245907      1.00000000
    -45.691  0.0000E+00  0.0000E+00  0.0000E+00  0.0000E+00
    -45.498  0.0000E+00  0.0000E+00  0.0000E+00  0.0000E+00
    -45.304  0.0000E+00  0.0000E+00  0.0000E+00  0.0000E+00
    -45.111  0.0000E+00  0.0000E+00  0.0000E+00  0.0000E+00
    -44.917  0.0000E+00  0.0000E+00  0.0000E+00  0.0000E+00
    -44.724  0.0000E+00  0.0000E+00  0.0000E+00  0.0000E+00
    -44.530  0.0000E+00  0.0000E+00  0.0000E+00  0.0000E+00
    -44.337  0.0000E+00  0.0000E+00  0.0000E+00  0.0000E+00
    -44.143  0.0000E+00  0.0000E+00  0.0000E+00  0.0000E+00
    -43.950  0.0000E+00  0.0000E+00  0.0000E+00  0.0000E+00
    -43.757  0.0000E+00  0.0000E+00  0.0000E+00  0.0000E+00
    -43.563  0.0000E+00  0.0000E+00  0.0000E+00  0.0000E+00
    -43.370  0.0000E+00  0.0000E+00  0.0000E+00  0.0000E+00
    -43.176  0.0000E+00  0.0000E+00  0.0000E+00  0.0000E+00
    -42.983  0.0000E+00  0.0000E+00  0.2020E-01  0.2020E-01
    -42.789  0.0000E+00  0.0000E+00  0.4040E-01  0.4040E-01
    -42.596  0.0000E+00  0.0000E+00  0.6061E-01  0.6061E-01
    -42.402  0.0000E+00  0.0000E+00  0.6061E-01  0.6061E-01
    -42.209  0.0000E+00  0.0000E+00  0.6061E-01  0.6061E-01
    -42.015  0.0000E+00  0.0000E+00  0.6061E-01  0.6061E-01
    -41.822  0.0000E+00  0.0000E+00  0.6061E-01  0.6061E-01
    -41.628  0.0000E+00  0.0000E+00  0.6061E-01  0.6061E-01
    -41.435  0.0000E+00  0.0000E+00  0.6061E-01  0.6061E-01
    -41.242  0.0000E+00  0.0000E+00  0.6061E-01  0.6061E-01
    -41.048  0.0000E+00  0.0000E+00  0.6061E-01  0.6061E-01
    -40.855  0.0000E+00  0.0000E+00  0.6061E-01  0.6061E-01
    -40.661  0.0000E+00  0.0000E+00  0.6061E-01  0.6061E-01
    -40.468  0.0000E+00  0.0000E+00  0.6061E-01  0.6061E-01
    -40.274  0.0000E+00  0.0000E+00  0.6061E-01  0.6061E-01
    -40.081  0.0000E+00  0.0000E+00  0.6061E-01  0.6061E-01
    -39.887  0.0000E+00  0.0000E+00  0.6061E-01  0.6061E-01
    -39.694  0.0000E+00  0.0000E+00  0.6061E-01  0.6061E-01
    -39.500  0.0000E+00  0.0000E+00  0.6061E-01  0.6061E-01
    -39.307  0.0000E+00  0.0000E+00  0.6061E-01  0.6061E-01
    -39.113  0.0000E+00  0.0000E+00  0.6061E-01  0.6061E-01
    -38.920  0.0000E+00  0.0000E+00  0.6061E-01  0.6061E-01
    -38.726  0.0000E+00  0.0000E+00  0.6061E-01  0.6061E-01
    -38.533  0.0000E+00  0.0000E+00  0.6061E-01  0.6061E-01
    -38.340  0.0000E+00  0.0000E+00  0.6061E-01  0.6061E-01
    -38.146  0.0000E+00  0.0000E+00  0.6061E-01  0.6061E-01
    -37.953  0.0000E+00  0.0000E+00  0.6061E-01  0.6061E-01
    -37.759  0.0000E+00  0.0000E+00  0.6061E-01  0.6061E-01
    -37.566  0.0000E+00  0.0000E+00  0.6061E-01  0.6061E-01
    -37.372  0.0000E+00  0.0000E+00  0.6061E-01  0.6061E-01
    -37.179  0.0000E+00  0.0000E+00  0.6061E-01  0.6061E-01
    -36.985  0.0000E+00  0.0000E+00  0.6061E-01  0.6061E-01
    -36.792  0.0000E+00  0.0000E+00  0.6061E-01  0.6061E-01
    -36.598  0.0000E+00  0.0000E+00  0.6061E-01  0.6061E-01
    -36.405  0.0000E+00  0.0000E+00  0.6061E-01  0.6061E-01
    -36.211  0.0000E+00  0.0000E+00  0.6061E-01  0.6061E-01
    -36.018  0.0000E+00  0.0000E+00  0.6061E-01  0.6061E-01
    -35.825  0.0000E+00  0.0000E+00  0.6061E-01  0.6061E-01
    -35.631  0.0000E+00  0.0000E+00  0.6061E-01  0.6061E-01
    -35.438  0.0000E+00  0.0000E+00  0.6061E-01  0.6061E-01
    -35.244  0.0000E+00  0.0000E+00  0.6061E-01  0.6061E-01
    -35.051  0.0000E+00  0.0000E+00  0.6061E-01  0.6061E-01
    -34.857  0.0000E+00  0.0000E+00  0.6061E-01  0.6061E-01
    -34.664  0.0000E+00  0.0000E+00  0.6061E-01  0.6061E-01
    -34.470  0.0000E+00  0.0000E+00  0.6061E-01  0.6061E-01
    -34.277  0.0000E+00  0.0000E+00  0.6061E-01  0.6061E-01
    -34.083  0.0000E+00  0.0000E+00  0.6061E-01  0.6061E-01
    -33.890  0.0000E+00  0.0000E+00  0.6061E-01  0.6061E-01
    -33.696  0.0000E+00  0.0000E+00  0.6061E-01  0.6061E-01
    -33.503  0.0000E+00  0.0000E+00  0.6061E-01  0.6061E-01
    -33.309  0.0000E+00  0.0000E+00  0.6061E-01  0.6061E-01
    -33.116  0.0000E+00  0.0000E+00  0.6061E-01  0.6061E-01
    -32.923  0.0000E+00  0.0000E+00  0.6061E-01  0.6061E-01
    -32.729  0.0000E+00  0.0000E+00  0.6061E-01  0.6061E-01
    -32.536  0.0000E+00  0.0000E+00  0.6061E-01  0.6061E-01
    -32.342  0.0000E+00  0.0000E+00  0.6061E-01  0.6061E-01
    -32.149  0.0000E+00  0.0000E+00  0.6061E-01  0.6061E-01
    -31.955  0.0000E+00  0.0000E+00  0.6061E-01  0.6061E-01
    -31.762  0.0000E+00  0.0000E+00  0.6061E-01  0.6061E-01
    -31.568  0.0000E+00  0.0000E+00  0.6061E-01  0.6061E-01
    -31.375  0.0000E+00  0.0000E+00  0.6061E-01  0.6061E-01
    -31.181  0.0000E+00  0.0000E+00  0.6061E-01  0.6061E-01
    -30.988  0.0000E+00  0.0000E+00  0.6061E-01  0.6061E-01
    -30.794  0.0000E+00  0.0000E+00  0.6061E-01  0.6061E-01
    -30.601  0.0000E+00  0.0000E+00  0.6061E-01  0.6061E-01
    -30.408  0.0000E+00  0.0000E+00  0.6061E-01  0.6061E-01
    -30.214  0.0000E+00  0.0000E+00  0.6061E-01  0.6061E-01
    -30.021  0.0000E+00  0.0000E+00  0.6061E-01  0.6061E-01
    -29.827  0.0000E+00  0.0000E+00  0.6061E-01  0.6061E-01
    -29.634  0.0000E+00  0.0000E+00  0.6061E-01  0.6061E-01
    -29.440  0.0000E+00  0.0000E+00  0.6061E-01  0.6061E-01
    -29.247  0.0000E+00  0.0000E+00  0.6061E-01  0.6061E-01
    -29.053  0.0000E+00  0.0000E+00  0.6061E-01  0.6061E-01
    -28.860  0.0000E+00  0.0000E+00  0.6061E-01  0.6061E-01
    -28.666  0.0000E+00  0.0000E+00  0.6061E-01  0.6061E-01
    -28.473  0.0000E+00  0.0000E+00  0.6061E-01  0.6061E-01
    -28.279  0.0000E+00  0.0000E+00  0.6061E-01  0.6061E-01
    -28.086  0.0000E+00  0.0000E+00  0.6061E-01  0.6061E-01
    -27.892  0.0000E+00  0.0000E+00  0.6061E-01  0.6061E-01
    -27.699  0.0000E+00  0.0000E+00  0.6061E-01  0.6061E-01
    -27.506  0.0000E+00  0.0000E+00  0.6061E-01  0.6061E-01
    -27.312  0.0000E+00  0.0000E+00  0.6061E-01  0.6061E-01
    -27.119  0.0000E+00  0.0000E+00  0.6061E-01  0.6061E-01
    -26.925  0.0000E+00  0.0000E+00  0.6061E-01  0.6061E-01
    -26.732  0.0000E+00  0.0000E+00  0.6061E-01  0.6061E-01
    -26.538  0.0000E+00  0.0000E+00  0.6061E-01  0.6061E-01
    -26.345  0.0000E+00  0.0000E+00  0.6061E-01  0.6061E-01
    -26.151  0.0000E+00  0.0000E+00  0.6061E-01  0.6061E-01
    -25.958  0.0000E+00  0.0000E+00  0.6061E-01  0.6061E-01
    -25.764  0.0000E+00  0.0000E+00  0.6061E-01  0.6061E-01
    -25.571  0.0000E+00  0.0000E+00  0.6061E-01  0.6061E-01
    -25.377  0.0000E+00  0.0000E+00  0.6061E-01  0.6061E-01
    -25.184  0.0000E+00  0.0000E+00  0.6061E-01  0.6061E-01
    -24.991  0.0000E+00  0.0000E+00  0.6061E-01  0.6061E-01
    -24.797  0.0000E+00  0.0000E+00  0.6061E-01  0.6061E-01
    -24.604  0.0000E+00  0.0000E+00  0.6061E-01  0.6061E-01
    -24.410  0.0000E+00  0.0000E+00  0.6061E-01  0.6061E-01
    -24.217  0.0000E+00  0.0000E+00  0.6061E-01  0.6061E-01
    -24.023  0.0000E+00  0.0000E+00  0.6061E-01  0.6061E-01
    -23.830  0.0000E+00  0.0000E+00  0.6061E-01  0.6061E-01
    -23.636  0.0000E+00  0.0000E+00  0.6061E-01  0.6061E-01
    -23.443  0.0000E+00  0.0000E+00  0.6061E-01  0.6061E-01
    -23.249  0.0000E+00  0.0000E+00  0.6061E-01  0.6061E-01
    -23.056  0.0000E+00  0.0000E+00  0.6061E-01  0.6061E-01
    -22.862  0.0000E+00  0.0000E+00  0.6061E-01  0.6061E-01
    -22.669  0.0000E+00  0.0000E+00  0.6061E-01  0.6061E-01
    -22.475  0.0000E+00  0.0000E+00  0.6061E-01  0.6061E-01
    -22.282  0.0000E+00  0.0000E+00  0.6061E-01  0.6061E-01
    -22.089  0.0000E+00  0.0000E+00  0.6061E-01  0.6061E-01
    -21.895  0.0000E+00  0.0000E+00  0.6061E-01  0.6061E-01
    -21.702  0.0000E+00  0.0000E+00  0.6061E-01  0.6061E-01
    -21.508  0.0000E+00  0.0000E+00  0.6061E-01  0.6061E-01
    -21.315  0.0000E+00  0.0000E+00  0.6061E-01  0.6061E-01
    -21.121  0.0000E+00  0.0000E+00  0.6061E-01  0.6061E-01
    -20.928  0.0000E+00  0.0000E+00  0.6061E-01  0.6061E-01
    -20.734  0.0000E+00  0.0000E+00  0.6061E-01  0.6061E-01
    -20.541  0.0000E+00  0.0000E+00  0.6061E-01  0.6061E-01
    -20.347  0.0000E+00  0.0000E+00  0.6061E-01  0.6061E-01
    -20.154  0.0000E+00  0.0000E+00  0.6061E-01  0.6061E-01
    -19.960  0.0000E+00  0.0000E+00  0.6061E-01  0.6061E-01
    -19.767  0.0000E+00  0.0000E+00  0.6061E-01  0.6061E-01
    -19.574  0.0000E+00  0.0000E+00  0.6061E-01  0.6061E-01
    -19.380  0.0000E+00  0.0000E+00  0.6061E-01  0.6061E-01
    -19.187  0.0000E+00  0.0000E+00  0.6061E-01  0.6061E-01
    -18.993  0.0000E+00  0.0000E+00  0.6061E-01  0.6061E-01
    -18.800  0.0000E+00  0.0000E+00  0.6061E-01  0.6061E-01
    -18.606  0.0000E+00  0.0000E+00  0.6061E-01  0.6061E-01
    -18.413  0.0000E+00  0.0000E+00  0.6061E-01  0.6061E-01
    -18.219  0.0000E+00  0.0000E+00  0.6061E-01  0.6061E-01
    -18.026  0.0000E+00  0.0000E+00  0.6061E-01  0.6061E-01
    -17.832  0.0000E+00  0.0000E+00  0.6061E-01  0.6061E-01
    -17.639  0.0000E+00  0.0000E+00  0.6061E-01  0.6061E-01
    -17.445  0.0000E+00  0.0000E+00  0.6061E-01  0.6061E-01
    -17.252  0.0000E+00  0.0000E+00  0.6061E-01  0.6061E-01
    -17.058  0.0000E+00  0.0000E+00  0.6061E-01  0.6061E-01
    -16.865  0.0000E+00  0.0000E+00  0.6061E-01  0.6061E-01
    -16.672  0.0000E+00  0.0000E+00  0.6061E-01  0.6061E-01
    -16.478  0.0000E+00  0.0000E+00  0.6061E-01  0.6061E-01
    -16.285  0.0000E+00  0.0000E+00  0.6061E-01  0.6061E-01
    -16.091  0.0000E+00  0.0000E+00  0.6061E-01  0.6061E-01
    -15.898  0.0000E+00  0.0000E+00  0.6061E-01  0.6061E-01
    -15.704  0.0000E+00  0.0000E+00  0.6061E-01  0.6061E-01
    -15.511  0.0000E+00  0.0000E+00  0.6061E-01  0.6061E-01
    -15.317  0.0000E+00  0.0000E+00  0.6061E-01  0.6061E-01
    -15.124  0.0000E+00  0.0000E+00  0.6061E-01  0.6061E-01
    -14.930  0.0000E+00  0.0000E+00  0.6061E-01  0.6061E-01
    -14.737  0.0000E+00  0.0000E+00  0.6061E-01  0.6061E-01
    -14.543  0.0000E+00  0.0000E+00  0.6061E-01  0.6061E-01
    -14.350  0.0000E+00  0.0000E+00  0.6061E-01  0.6061E-01
    -14.157  0.0000E+00  0.0000E+00  0.6061E-01  0.6061E-01
    -13.963  0.0000E+00  0.0000E+00  0.6061E-01  0.6061E-01
    -13.770  0.0000E+00  0.0000E+00  0.6061E-01  0.6061E-01
    -13.576  0.0000E+00  0.0000E+00  0.6061E-01  0.6061E-01
    -13.383  0.0000E+00  0.0000E+00  0.6061E-01  0.6061E-01
    -13.189  0.0000E+00  0.0000E+00  0.7071E-01  0.7071E-01
    -12.996  0.0000E+00  0.0000E+00  0.7071E-01  0.7071E-01
    -12.802  0.0000E+00  0.0000E+00  0.7071E-01  0.7071E-01
    -12.609  0.0000E+00  0.0000E+00  0.7071E-01  0.7071E-01
    -12.415  0.0000E+00  0.0000E+00  0.8081E-01  0.8081E-01
    -12.222  0.0000E+00  0.0000E+00  0.8081E-01  0.8081E-01
    -12.028  0.0000E+00  0.0000E+00  0.8081E-01  0.8081E-01
    -11.835  0.0000E+00  0.0000E+00  0.8081E-01  0.8081E-01
    -11.641  0.0000E+00  0.0000E+00  0.8081E-01  0.8081E-01
    -11.448  0.0000E+00  0.0000E+00  0.8081E-01  0.8081E-01
    -11.255  0.0000E+00  0.0000E+00  0.8081E-01  0.8081E-01
    -11.061  0.0000E+00  0.0000E+00  0.8081E-01  0.8081E-01
    -10.868  0.0000E+00  0.0000E+00  0.8081E-01  0.8081E-01
    -10.674  0.0000E+00  0.0000E+00  0.8081E-01  0.8081E-01
    -10.481  0.3908E-02  0.3892E-02  0.8082E-01  0.8082E-01
    -10.287  0.2996E+00  0.2997E+00  0.9409E-01  0.9409E-01
    -10.094  0.0000E+00  0.0000E+00  0.1111E+00  0.1111E+00
     -9.900  0.0000E+00  0.0000E+00  0.1111E+00  0.1111E+00
     -9.707  0.0000E+00  0.0000E+00  0.1111E+00  0.1111E+00
     -9.513  0.0000E+00  0.0000E+00  0.1111E+00  0.1111E+00
     -9.320  0.0000E+00  0.0000E+00  0.1111E+00  0.1111E+00
     -9.126  0.0000E+00  0.0000E+00  0.1111E+00  0.1111E+00
     -8.933  0.0000E+00  0.0000E+00  0.1111E+00  0.1111E+00
     -8.740  0.0000E+00  0.0000E+00  0.1111E+00  0.1111E+00
     -8.546  0.0000E+00  0.0000E+00  0.1212E+00  0.1212E+00
     -8.353  0.0000E+00  0.0000E+00  0.1212E+00  0.1212E+00
     -8.159  0.0000E+00  0.0000E+00  0.1212E+00  0.1212E+00
     -7.966  0.0000E+00  0.0000E+00  0.1212E+00  0.1212E+00
     -7.772  0.0000E+00  0.0000E+00  0.1212E+00  0.1212E+00
     -7.579  0.0000E+00  0.0000E+00  0.1212E+00  0.1212E+00
     -7.385  0.0000E+00  0.0000E+00  0.1212E+00  0.1212E+00
     -7.192  0.0000E+00  0.0000E+00  0.1212E+00  0.1212E+00
     -6.998  0.0000E+00  0.0000E+00  0.1212E+00  0.1212E+00
     -6.805  0.0000E+00  0.0000E+00  0.1212E+00  0.1212E+00
     -6.611  0.0000E+00  0.0000E+00  0.1212E+00  0.1212E+00
     -6.418  0.8962E-03  0.8952E-03  0.1212E+00  0.1212E+00
     -6.224  0.9818E-02  0.9815E-02  0.1222E+00  0.1222E+00
     -6.031  0.3571E-01  0.3569E-01  0.1256E+00  0.1256E+00
     -5.838  0.0000E+00  0.0000E+00  0.1313E+00  0.1313E+00
     -5.644  0.0000E+00  0.0000E+00  0.1313E+00  0.1313E+00
     -5.451  0.0000E+00  0.0000E+00  0.1313E+00  0.1313E+00
     -5.257  0.0000E+00  0.0000E+00  0.1313E+00  0.1313E+00
     -5.064  0.0000E+00  0.0000E+00  0.1313E+00  0.1313E+00
     -4.870  0.0000E+00  0.0000E+00  0.1313E+00  0.1313E+00
     -4.677  0.0000E+00  0.0000E+00  0.1313E+00  0.1313E+00
     -4.483  0.0000E+00  0.0000E+00  0.1313E+00  0.1313E+00
     -4.290  0.0000E+00  0.0000E+00  0.1313E+00  0.1313E+00
     -4.096  0.0000E+00  0.0000E+00  0.1313E+00  0.1313E+00
     -3.903  0.0000E+00  0.0000E+00  0.1313E+00  0.1313E+00
     -3.709  0.0000E+00  0.0000E+00  0.1313E+00  0.1313E+00
     -3.516  0.0000E+00  0.0000E+00  0.1313E+00  0.1313E+00
     -3.323  0.4132E-01  0.4135E-01  0.1357E+00  0.1357E+00
     -3.129  0.1333E-01  0.1334E-01  0.1408E+00  0.1408E+00
     -2.936  0.2513E-01  0.2509E-01  0.1424E+00  0.1424E+00
     -2.742  0.5772E-01  0.5773E-01  0.1543E+00  0.1543E+00
     -2.549  0.0000E+00  0.0000E+00  0.1616E+00  0.1616E+00
     -2.355  0.0000E+00  0.0000E+00  0.1616E+00  0.1616E+00
     -2.162  0.0000E+00  0.0000E+00  0.1616E+00  0.1616E+00
     -1.968  0.0000E+00  0.0000E+00  0.1616E+00  0.1616E+00
     -1.775  0.0000E+00  0.0000E+00  0.1616E+00  0.1616E+00
     -1.581  0.0000E+00  0.0000E+00  0.1616E+00  0.1616E+00
     -1.388  0.1575E-01  0.1576E-01  0.1618E+00  0.1618E+00
     -1.194  0.4278E-01  0.4278E-01  0.1813E+00  0.1813E+00
     -1.001  0.7394E-02  0.7395E-02  0.1917E+00  0.1917E+00
     -0.807  0.3182E-02  0.3181E-02  0.1920E+00  0.1920E+00
     -0.614  0.5186E-01  0.5186E-01  0.1974E+00  0.1974E+00
     -0.421  0.7566E-02  0.7563E-02  0.2023E+00  0.2023E+00
     -0.227  0.8206E-01  0.8200E-01  0.2138E+00  0.2138E+00
     -0.034  0.4596E-01  0.4593E-01  0.2317E+00  0.2317E+00
      0.160  0.0000E+00  0.0000E+00  0.2424E+00  0.2424E+00
      0.353  0.0000E+00  0.0000E+00  0.2424E+00  0.2424E+00
      0.547  0.8327E-01  0.8327E-01  0.2464E+00  0.2464E+00
      0.740  0.6175E-01  0.6174E-01  0.2593E+00  0.2593E+00
      0.934  0.9211E-01  0.9212E-01  0.2737E+00  0.2737E+00
      1.127  0.1183E+00  0.1183E+00  0.2907E+00  0.2907E+00
      1.321  0.1489E-01  0.1490E-01  0.3023E+00  0.3023E+00
      1.514  0.0000E+00  0.0000E+00  0.3030E+00  0.3030E+00
      1.708  0.0000E+00  0.0000E+00  0.3030E+00  0.3030E+00
      1.901  0.0000E+00  0.0000E+00  0.3030E+00  0.3030E+00
      2.094  0.0000E+00  0.0000E+00  0.3030E+00  0.3030E+00
      2.288  0.0000E+00  0.0000E+00  0.3030E+00  0.3030E+00
      2.481  0.0000E+00  0.0000E+00  0.3030E+00  0.3030E+00
      2.675  0.0000E+00  0.0000E+00  0.3030E+00  0.3030E+00
      2.868  0.0000E+00  0.0000E+00  0.3030E+00  0.3030E+00
      3.062  0.0000E+00  0.0000E+00  0.3030E+00  0.3030E+00
      3.255  0.0000E+00  0.0000E+00  0.3030E+00  0.3030E+00
      3.449  0.0000E+00  0.0000E+00  0.3030E+00  0.3030E+00
      3.642  0.0000E+00  0.0000E+00  0.3030E+00  0.3030E+00
      3.836  0.2158E-03  0.2156E-03  0.3030E+00  0.3030E+00
      4.029  0.1116E-02  0.1116E-02  0.3032E+00  0.3032E+00
      4.223  0.3150E-02  0.3149E-02  0.3035E+00  0.3035E+00
      4.416  0.5682E-02  0.5681E-02  0.3044E+00  0.3044E+00
      4.610  0.8574E-02  0.8572E-02  0.3057E+00  0.3057E+00
      4.803  0.1174E-01  0.1174E-01  0.3078E+00  0.3078E+00
      4.996  0.1236E-01  0.1236E-01  0.3103E+00  0.3103E+00
      5.190  0.7030E-02  0.7032E-02  0.3121E+00  0.3121E+00
      5.383  0.2553E-02  0.2554E-02  0.3130E+00  0.3130E+00
      5.577  0.2149E-01  0.2148E-01  0.3144E+00  0.3144E+00
      5.770  0.3860E-02  0.3861E-02  0.3236E+00  0.3236E+00
      5.964  0.1280E-01  0.1280E-01  0.3251E+00  0.3251E+00
      6.157  0.5076E-01  0.5075E-01  0.3301E+00  0.3301E+00
      6.351  0.2722E-01  0.2722E-01  0.3373E+00  0.3373E+00
      6.544  0.1971E-01  0.1972E-01  0.3436E+00  0.3436E+00
      6.738  0.8803E-02  0.8803E-02  0.3456E+00  0.3456E+00
      6.931  0.2195E-01  0.2195E-01  0.3482E+00  0.3482E+00
      7.125  0.1537E-01  0.1537E-01  0.3534E+00  0.3534E+00
      7.318  0.6626E-01  0.6625E-01  0.3591E+00  0.3591E+00
      7.511  0.3211E-03  0.3204E-03  0.3636E+00  0.3636E+00
      7.705  0.8577E-01  0.8568E-01  0.3711E+00  0.3711E+00
      7.898  0.3533E-01  0.3538E-01  0.3751E+00  0.3751E+00
      8.092  0.2053E-01  0.2054E-01  0.3834E+00  0.3834E+00
      8.285  0.5576E-01  0.5580E-01  0.3895E+00  0.3895E+00
      8.479  0.5788E-01  0.5787E-01  0.3981E+00  0.3981E+00
      8.672  0.8576E-01  0.8566E-01  0.4074E+00  0.4074E+00
      8.866  0.5341E-01  0.5326E-01  0.4159E+00  0.4159E+00
      9.059  0.4366E-01  0.4312E-01  0.4262E+00  0.4262E+00
      9.253  0.4952E-01  0.4646E-01  0.4357E+00  0.4355E+00
      9.446  0.1458E-01  0.1578E-01  0.4438E+00  0.4437E+00
      9.640  0.2268E-04  0.1455E-03  0.4444E+00  0.4444E+00
      9.833  0.0000E+00  0.0000E+00  0.4444E+00  0.4444E+00
     10.027  0.0000E+00  0.0000E+00  0.4444E+00  0.4444E+00
     10.220  0.0000E+00  0.0000E+00  0.4444E+00  0.4444E+00
     10.413  0.0000E+00  0.0000E+00  0.4444E+00  0.4444E+00
     10.607  0.0000E+00  0.0000E+00  0.4444E+00  0.4444E+00
     10.800  0.0000E+00  0.0000E+00  0.4444E+00  0.4444E+00
     10.994  0.0000E+00  0.0000E+00  0.4444E+00  0.4444E+00
     11.187  0.0000E+00  0.0000E+00  0.4444E+00  0.4444E+00
     11.381  0.0000E+00  0.0000E+00  0.4444E+00  0.4444E+00
     11.574  0.0000E+00  0.0000E+00  0.4444E+00  0.4444E+00
     11.768  0.0000E+00  0.0000E+00  0.4444E+00  0.4444E+00
     11.961  0.0000E+00  0.0000E+00  0.4444E+00  0.4444E+00
     12.155  0.0000E+00  0.0000E+00  0.4444E+00  0.4444E+00
     12.348  0.0000E+00  0.0000E+00  0.4444E+00  0.4444E+00
     12.34809027    -45.69118074  301      1.56245907      1.00000000
    -45.691  0.0000E+00  0.0000E+00  0.0000E+00  0.0000E+00  0.0000E+00  0.0000E+00  0.0000E+00  0.0000E+00  0.0000E+00  0.0000E+00  0.0000E+00  0.0000E+00  0.0000E+00  0.0000E+00  0.0000E+00  0.0000E+00  0.0000E+00  0.0000E+00
    -45.498  0.0000E+00  0.0000E+00  0.0000E+00  0.0000E+00  0.0000E+00  0.0000E+00  0.0000E+00  0.0000E+00  0.0000E+00  0.0000E+00  0.0000E+00  0.0000E+00  0.0000E+00  0.0000E+00  0.0000E+00  0.0000E+00  0.0000E+00  0.0000E+00
    -45.304  0.0000E+00  0.0000E+00  0.0000E+00  0.0000E+00  0.0000E+00  0.0000E+00  0.0000E+00  0.0000E+00  0.0000E+00  0.0000E+00  0.0000E+00  0.0000E+00  0.0000E+00  0.0000E+00  0.0000E+00  0.0000E+00  0.0000E+00  0.0000E+00
    -45.111  0.0000E+00  0.0000E+00  0.0000E+00  0.0000E+00  0.0000E+00  0.0000E+00  0.0000E+00  0.0000E+00  0.0000E+00  0.0000E+00  0.0000E+00  0.0000E+00  0.0000E+00  0.0000E+00  0.0000E+00  0.0000E+00  0.0000E+00  0.0000E+00
    -44.917  0.0000E+00  0.0000E+00  0.0000E+00  0.0000E+00  0.0000E+00  0.0000E+00  0.0000E+00  0.0000E+00  0.0000E+00  0.0000E+00  0.0000E+00  0.0000E+00  0.0000E+00  0.0000E+00  0.0000E+00  0.0000E+00  0.0000E+00  0.0000E+00
    -44.724  0.0000E+00  0.0000E+00  0.0000E+00  0.0000E+00  0.0000E+00  0.0000E+00  0.0000E+00  0.0000E+00  0.0000E+00  0.0000E+00  0.0000E+00  0.0000E+00  0.0000E+00  0.0000E+00  0.0000E+00  0.0000E+00  0.0000E+00  0.0000E+00
    -44.530  0.0000E+00  0.0000E+00  0.0000E+00  0.0000E+00  0.0000E+00  0.0000E+00  0.0000E+00  0.0000E+00  0.0000E+00  0.0000E+00  0.0000E+00  0.0000E+00  0.0000E+00  0.0000E+00  0.0000E+00  0.0000E+00  0.0000E+00  0.0000E+00
    -44.337  0.0000E+00  0.0000E+00  0.0000E+00  0.0000E+00  0.0000E+00  0.0000E+00  0.0000E+00  0.0000E+00  0.0000E+00  0.0000E+00  0.0000E+00  0.0000E+00  0.0000E+00  0.0000E+00  0.0000E+00  0.0000E+00  0.0000E+00  0.0000E+00
    -44.143  0.0000E+00  0.0000E+00  0.0000E+00  0.0000E+00  0.0000E+00  0.0000E+00  0.0000E+00  0.0000E+00  0.0000E+00  0.0000E+00  0.0000E+00  0.0000E+00  0.0000E+00  0.0000E+00  0.0000E+00  0.0000E+00  0.0000E+00  0.0000E+00
    -43.950  0.0000E+00  0.0000E+00  0.0000E+00  0.0000E+00  0.0000E+00  0.0000E+00  0.0000E+00  0.0000E+00  0.0000E+00  0.0000E+00  0.0000E+00  0.0000E+00  0.0000E+00  0.0000E+00  0.0000E+00  0.0000E+00  0.0000E+00  0.0000E+00
    -43.757  0.0000E+00  0.0000E+00  0.0000E+00  0.0000E+00  0.0000E+00  0.0000E+00  0.0000E+00  0.0000E+00  0.0000E+00  0.0000E+00  0.0000E+00  0.0000E+00  0.0000E+00  0.0000E+00  0.0000E+00  0.0000E+00  0.0000E+00  0.0000E+00
    -43.563  0.0000E+00  0.0000E+00  0.0000E+00  0.0000E+00  0.0000E+00  0.0000E+00  0.0000E+00  0.0000E+00  0.0000E+00  0.0000E+00  0.0000E+00  0.0000E+00  0.0000E+00  0.0000E+00  0.0000E+00  0.0000E+00  0.0000E+00  0.0000E+00
    -43.370  0.0000E+00  0.0000E+00  0.0000E+00  0.0000E+00  0.0000E+00  0.0000E+00  0.0000E+00  0.0000E+00  0.0000E+00  0.0000E+00  0.0000E+00  0.0000E+00  0.0000E+00  0.0000E+00  0.0000E+00  0.0000E+00  0.0000E+00  0.0000E+00
    -43.176  0.0000E+00  0.0000E+00  0.0000E+00  0.0000E+00  0.0000E+00  0.0000E+00  0.0000E+00  0.0000E+00  0.0000E+00  0.0000E+00  0.0000E+00  0.0000E+00  0.0000E+00  0.0000E+00  0.0000E+00  0.0000E+00  0.0000E+00  0.0000E+00
    -42.983  0.0000E+00  0.0000E+00  0.0000E+00  0.0000E+00  0.0000E+00  0.0000E+00  0.0000E+00  0.0000E+00  0.0000E+00  0.0000E+00  0.0000E+00  0.0000E+00  0.0000E+00  0.0000E+00  0.0000E+00  0.0000E+00  0.0000E+00  0.0000E+00
    -42.789  0.0000E+00  0.0000E+00  0.0000E+00  0.0000E+00  0.0000E+00  0.0000E+00  0.0000E+00  0.0000E+00  0.0000E+00  0.0000E+00  0.0000E+00  0.0000E+00  0.0000E+00  0.0000E+00  0.0000E+00  0.0000E+00  0.0000E+00  0.0000E+00
    -42.596  0.0000E+00  0.0000E+00  0.0000E+00  0.0000E+00  0.0000E+00  0.0000E+00  0.0000E+00  0.0000E+00  0.0000E+00  0.0000E+00  0.0000E+00  0.0000E+00  0.0000E+00  0.0000E+00  0.0000E+00  0.0000E+00  0.0000E+00  0.0000E+00
    -42.402  0.0000E+00  0.0000E+00  0.0000E+00  0.0000E+00  0.0000E+00  0.0000E+00  0.0000E+00  0.0000E+00  0.0000E+00  0.0000E+00  0.0000E+00  0.0000E+00  0.0000E+00  0.0000E+00  0.0000E+00  0.0000E+00  0.0000E+00  0.0000E+00
    -42.209  0.0000E+00  0.0000E+00  0.0000E+00  0.0000E+00  0.0000E+00  0.0000E+00  0.0000E+00  0.0000E+00  0.0000E+00  0.0000E+00  0.0000E+00  0.0000E+00  0.0000E+00  0.0000E+00  0.0000E+00  0.0000E+00  0.0000E+00  0.0000E+00
    -42.015  0.0000E+00  0.0000E+00  0.0000E+00  0.0000E+00  0.0000E+00  0.0000E+00  0.0000E+00  0.0000E+00  0.0000E+00  0.0000E+00  0.0000E+00  0.0000E+00  0.0000E+00  0.0000E+00  0.0000E+00  0.0000E+00  0.0000E+00  0.0000E+00
    -41.822  0.0000E+00  0.0000E+00  0.0000E+00  0.0000E+00  0.0000E+00  0.0000E+00  0.0000E+00  0.0000E+00  0.0000E+00  0.0000E+00  0.0000E+00  0.0000E+00  0.0000E+00  0.0000E+00  0.0000E+00  0.0000E+00  0.0000E+00  0.0000E+00
    -41.628  0.0000E+00  0.0000E+00  0.0000E+00  0.0000E+00  0.0000E+00  0.0000E+00  0.0000E+00  0.0000E+00  0.0000E+00  0.0000E+00  0.0000E+00  0.0000E+00  0.0000E+00  0.0000E+00  0.0000E+00  0.0000E+00  0.0000E+00  0.0000E+00
    -41.435  0.0000E+00  0.0000E+00  0.0000E+00  0.0000E+00  0.0000E+00  0.0000E+00  0.0000E+00  0.0000E+00  0.0000E+00  0.0000E+00  0.0000E+00  0.0000E+00  0.0000E+00  0.0000E+00  0.0000E+00  0.0000E+00  0.0000E+00  0.0000E+00
    -41.242  0.0000E+00  0.0000E+00  0.0000E+00  0.0000E+00  0.0000E+00  0.0000E+00  0.0000E+00  0.0000E+00  0.0000E+00  0.0000E+00  0.0000E+00  0.0000E+00  0.0000E+00  0.0000E+00  0.0000E+00  0.0000E+00  0.0000E+00  0.0000E+00
    -41.048  0.0000E+00  0.0000E+00  0.0000E+00  0.0000E+00  0.0000E+00  0.0000E+00  0.0000E+00  0.0000E+00  0.0000E+00  0.0000E+00  0.0000E+00  0.0000E+00  0.0000E+00  0.0000E+00  0.0000E+00  0.0000E+00  0.0000E+00  0.0000E+00
    -40.855  0.0000E+00  0.0000E+00  0.0000E+00  0.0000E+00  0.0000E+00  0.0000E+00  0.0000E+00  0.0000E+00  0.0000E+00  0.0000E+00  0.0000E+00  0.0000E+00  0.0000E+00  0.0000E+00  0.0000E+00  0.0000E+00  0.0000E+00  0.0000E+00
    -40.661  0.0000E+00  0.0000E+00  0.0000E+00  0.0000E+00  0.0000E+00  0.0000E+00  0.0000E+00  0.0000E+00  0.0000E+00  0.0000E+00  0.0000E+00  0.0000E+00  0.0000E+00  0.0000E+00  0.0000E+00  0.0000E+00  0.0000E+00  0.0000E+00
    -40.468  0.0000E+00  0.0000E+00  0.0000E+00  0.0000E+00  0.0000E+00  0.0000E+00  0.0000E+00  0.0000E+00  0.0000E+00  0.0000E+00  0.0000E+00  0.0000E+00  0.0000E+00  0.0000E+00  0.0000E+00  0.0000E+00  0.0000E+00  0.0000E+00
    -40.274  0.0000E+00  0.0000E+00  0.0000E+00  0.0000E+00  0.0000E+00  0.0000E+00  0.0000E+00  0.0000E+00  0.0000E+00  0.0000E+00  0.0000E+00  0.0000E+00  0.0000E+00  0.0000E+00  0.0000E+00  0.0000E+00  0.0000E+00  0.0000E+00
    -40.081  0.0000E+00  0.0000E+00  0.0000E+00  0.0000E+00  0.0000E+00  0.0000E+00  0.0000E+00  0.0000E+00  0.0000E+00  0.0000E+00  0.0000E+00  0.0000E+00  0.0000E+00  0.0000E+00  0.0000E+00  0.0000E+00  0.0000E+00  0.0000E+00
    -39.887  0.0000E+00  0.0000E+00  0.0000E+00  0.0000E+00  0.0000E+00  0.0000E+00  0.0000E+00  0.0000E+00  0.0000E+00  0.0000E+00  0.0000E+00  0.0000E+00  0.0000E+00  0.0000E+00  0.0000E+00  0.0000E+00  0.0000E+00  0.0000E+00
    -39.694  0.0000E+00  0.0000E+00  0.0000E+00  0.0000E+00  0.0000E+00  0.0000E+00  0.0000E+00  0.0000E+00  0.0000E+00  0.0000E+00  0.0000E+00  0.0000E+00  0.0000E+00  0.0000E+00  0.0000E+00  0.0000E+00  0.0000E+00  0.0000E+00
    -39.500  0.0000E+00  0.0000E+00  0.0000E+00  0.0000E+00  0.0000E+00  0.0000E+00  0.0000E+00  0.0000E+00  0.0000E+00  0.0000E+00  0.0000E+00  0.0000E+00  0.0000E+00  0.0000E+00  0.0000E+00  0.0000E+00  0.0000E+00  0.0000E+00
    -39.307  0.0000E+00  0.0000E+00  0.0000E+00  0.0000E+00  0.0000E+00  0.0000E+00  0.0000E+00  0.0000E+00  0.0000E+00  0.0000E+00  0.0000E+00  0.0000E+00  0.0000E+00  0.0000E+00  0.0000E+00  0.0000E+00  0.0000E+00  0.0000E+00
    -39.113  0.0000E+00  0.0000E+00  0.0000E+00  0.0000E+00  0.0000E+00  0.0000E+00  0.0000E+00  0.0000E+00  0.0000E+00  0.0000E+00  0.0000E+00  0.0000E+00  0.0000E+00  0.0000E+00  0.0000E+00  0.0000E+00  0.0000E+00  0.0000E+00
    -38.920  0.0000E+00  0.0000E+00  0.0000E+00  0.0000E+00  0.0000E+00  0.0000E+00  0.0000E+00  0.0000E+00  0.0000E+00  0.0000E+00  0.0000E+00  0.0000E+00  0.0000E+00  0.0000E+00  0.0000E+00  0.0000E+00  0.0000E+00  0.0000E+00
    -38.726  0.0000E+00  0.0000E+00  0.0000E+00  0.0000E+00  0.0000E+00  0.0000E+00  0.0000E+00  0.0000E+00  0.0000E+00  0.0000E+00  0.0000E+00  0.0000E+00  0.0000E+00  0.0000E+00  0.0000E+00  0.0000E+00  0.0000E+00  0.0000E+00
    -38.533  0.0000E+00  0.0000E+00  0.0000E+00  0.0000E+00  0.0000E+00  0.0000E+00  0.0000E+00  0.0000E+00  0.0000E+00  0.0000E+00  0.0000E+00  0.0000E+00  0.0000E+00  0.0000E+00  0.0000E+00  0.0000E+00  0.0000E+00  0.0000E+00
    -38.340  0.0000E+00  0.0000E+00  0.0000E+00  0.0000E+00  0.0000E+00  0.0000E+00  0.0000E+00  0.0000E+00  0.0000E+00  0.0000E+00  0.0000E+00  0.0000E+00  0.0000E+00  0.0000E+00  0.0000E+00  0.0000E+00  0.0000E+00  0.0000E+00
    -38.146  0.0000E+00  0.0000E+00  0.0000E+00  0.0000E+00  0.0000E+00  0.0000E+00  0.0000E+00  0.0000E+00  0.0000E+00  0.0000E+00  0.0000E+00  0.0000E+00  0.0000E+00  0.0000E+00  0.0000E+00  0.0000E+00  0.0000E+00  0.0000E+00
    -37.953  0.0000E+00  0.0000E+00  0.0000E+00  0.0000E+00  0.0000E+00  0.0000E+00  0.0000E+00  0.0000E+00  0.0000E+00  0.0000E+00  0.0000E+00  0.0000E+00  0.0000E+00  0.0000E+00  0.0000E+00  0.0000E+00  0.0000E+00  0.0000E+00
    -37.759  0.0000E+00  0.0000E+00  0.0000E+00  0.0000E+00  0.0000E+00  0.0000E+00  0.0000E+00  0.0000E+00  0.0000E+00  0.0000E+00  0.0000E+00  0.0000E+00  0.0000E+00  0.0000E+00  0.0000E+00  0.0000E+00  0.0000E+00  0.0000E+00
    -37.566  0.0000E+00  0.0000E+00  0.0000E+00  0.0000E+00  0.0000E+00  0.0000E+00  0.0000E+00  0.0000E+00  0.0000E+00  0.0000E+00  0.0000E+00  0.0000E+00  0.0000E+00  0.0000E+00  0.0000E+00  0.0000E+00  0.0000E+00  0.0000E+00
    -37.372  0.0000E+00  0.0000E+00  0.0000E+00  0.0000E+00  0.0000E+00  0.0000E+00  0.0000E+00  0.0000E+00  0.0000E+00  0.0000E+00  0.0000E+00  0.0000E+00  0.0000E+00  0.0000E+00  0.0000E+00  0.0000E+00  0.0000E+00  0.0000E+00
    -37.179  0.0000E+00  0.0000E+00  0.0000E+00  0.0000E+00  0.0000E+00  0.0000E+00  0.0000E+00  0.0000E+00  0.0000E+00  0.0000E+00  0.0000E+00  0.0000E+00  0.0000E+00  0.0000E+00  0.0000E+00  0.0000E+00  0.0000E+00  0.0000E+00
    -36.985  0.0000E+00  0.0000E+00  0.0000E+00  0.0000E+00  0.0000E+00  0.0000E+00  0.0000E+00  0.0000E+00  0.0000E+00  0.0000E+00  0.0000E+00  0.0000E+00  0.0000E+00  0.0000E+00  0.0000E+00  0.0000E+00  0.0000E+00  0.0000E+00
    -36.792  0.0000E+00  0.0000E+00  0.0000E+00  0.0000E+00  0.0000E+00  0.0000E+00  0.0000E+00  0.0000E+00  0.0000E+00  0.0000E+00  0.0000E+00  0.0000E+00  0.0000E+00  0.0000E+00  0.0000E+00  0.0000E+00  0.0000E+00  0.0000E+00
    -36.598  0.0000E+00  0.0000E+00  0.0000E+00  0.0000E+00  0.0000E+00  0.0000E+00  0.0000E+00  0.0000E+00  0.0000E+00  0.0000E+00  0.0000E+00  0.0000E+00  0.0000E+00  0.0000E+00  0.0000E+00  0.0000E+00  0.0000E+00  0.0000E+00
    -36.405  0.0000E+00  0.0000E+00  0.0000E+00  0.0000E+00  0.0000E+00  0.0000E+00  0.0000E+00  0.0000E+00  0.0000E+00  0.0000E+00  0.0000E+00  0.0000E+00  0.0000E+00  0.0000E+00  0.0000E+00  0.0000E+00  0.0000E+00  0.0000E+00
    -36.211  0.0000E+00  0.0000E+00  0.0000E+00  0.0000E+00  0.0000E+00  0.0000E+00  0.0000E+00  0.0000E+00  0.0000E+00  0.0000E+00  0.0000E+00  0.0000E+00  0.0000E+00  0.0000E+00  0.0000E+00  0.0000E+00  0.0000E+00  0.0000E+00
    -36.018  0.0000E+00  0.0000E+00  0.0000E+00  0.0000E+00  0.0000E+00  0.0000E+00  0.0000E+00  0.0000E+00  0.0000E+00  0.0000E+00  0.0000E+00  0.0000E+00  0.0000E+00  0.0000E+00  0.0000E+00  0.0000E+00  0.0000E+00  0.0000E+00