Automatically generated mesh
      36
Reciprocal lattice
    0.00000000000000    0.00000000000000    0.00000000000000             1
    0.25000000000000    0.00000000000000    0.00000000000000             2
    0.50000000000000    0.00000000000000    0.00000000000000             1
    0.00000000000000    0.25000000000000   -0.00000000000000             2
    0.25000000000000    0.25000000000000   -0.00000000000000             2
    0.50000000000000    0.25000000000000   -0.00000000000000             2
   -0.25000000000000    0.25000000000000   -0.00000000000000             2
    0.00000000000000    0.50000000000000   -0.00000000000000             1
    0.25000000000000    0.50000000000000   -0.00000000000000             2
    0.50000000000000    0.50000000000000   -0.00000000000000             1
   -0.00000000000000   -0.00000000000000    0.25000000000000             2
    0.25000000000000   -0.00000000000000    0.25000000000000             2
    0.50000000000000   -0.00000000000000    0.25000000000000             2
   -0.25000000000000   -0.00000000000000    0.25000000000000             2
   -0.00000000000000    0.25000000000000    0.25000000000000             2
    0.25000000000000    0.25000000000000    0.25000000000000             2
    0.50000000000000    0.25000000000000    0.25000000000000             2
   -0.25000000000000    0.25000000000000    0.25000000000000             2
   -0.00000000000000    0.50000000000000    0.25000000000000             2
    0.25000000000000    0.50000000000000    0.25000000000000             2
    0.50000000000000    0.50000000000000    0.25000000000000             2
   -0.25000000000000    0.50000000000000    0.25000000000000             2
   -0.00000000000000   -0.25000000000000    0.25000000000000             2
    0.25000000000000   -0.25000000000000    0.25000000000000             2
    0.50000000000000   -0.25000000000000    0.25000000000000             2
   -0.25000000000000   -0.25000000000000    0.25000000000000             2
   -0.00000000000000   -0.00000000000000    0.50000000000000             1
    0.25000000000000   -0.00000000000000    0.50000000000000             2
    0.50000000000000   -0.00000000000000    0.50000000000000             1
   -0.00000000000000    0.25000000000000    0.50000000000000             2
    0.25000000000000    0.25000000000000    0.50000000000000             2
    0.50000000000000    0.25000000000000    0.50000000000000             2
   -0.25000000000000    0.25000000000000    0.50000000000000             2
   -0.00000000000000    0.50000000000000    0.50000000000000             1
    0.25000000000000    0.50000000000000    0.50000000000000             2
    0.50000000000000    0.50000000000000    0.50000000000000             1
Tetrahedra
       192    0.00260416666667
         2         1         2         4        12
         2         2         4         5        12
         2         4         5        12        16
         2         1         4        11        12
         2         4        11        12        15
         2         4        12        15        16
         2         2         3         5        13
         2         3         5         6        13
         2         5         6        13        17
         2         2         5        12        13
         2         5        12        13        16
         2         5        13        16        17
         2         2         3         6        14
         2         2         6         7        14
         2         6         7        14        18
         2         3         6        13        14
         2         6        13        14        17
         2         6        14        17        18
         2         1         2         7        11
         2         1         4         7        11
         2         4         7        11        15
         2         2         7        11        14
         2         7        11        14        18
         2         7        11        15        18
         2         4         5         8        16
         2         5         8         9        16
         2         8         9        16        20
         2         4         8        15        16
         2         8        15        16        19
         2         8        16        19        20
         2         5         6         9        17
         2         6         9        10        17
         2         9        10        17        21
         2         5         9        16        17
         2         9        16        17        20
         2         9        17        20        21
         2         6         7        10        18
         2         7         9        10        18
         2         9        10        18        22
         2         6        10        17        18
         2        10        17        18        21
         2        10        18        21        22
         2         4         7         9        15
         2         4         8         9        15
         2         8         9        15        19
         2         7         9        15        18
         2         9        15        18        22
         2         9        15        19        22
         2         4         8         9        20
         2         4         7         9        20
         2         4         7        20        24
         2         4         8        19        20
         2         4        19        20        23
         2         4        20        23        24
         2         7         9        10        21
         2         6         7        10        21
         2         6         7        21        25
         2         7         9        20        21
         2         7        20        21        24
         2         7        21        24        25
         2         6         9        10        22
         2         5         6         9        22
         2         5         6        22        26
         2         6        10        21        22
         2         6        21        22        25
         2         6        22        25        26
         2         5         8         9        19
         2         4         5         8        19
         2         4         5        19        23
         2         5         9        19        22
         2         5        19        22        26
         2         5        19        23        26
         2         1         4         7        24
         2         1         2         7        24
         2         1         2        12        24
         2         1         4        23        24
         2         1        11        23        24
         2         1        11        12        24
         2         2         6         7        25
         2         2         3         6        25
         2         2         3        13        25
         2         2         7        24        25
         2         2        12        24        25
         2         2        12        13        25
         2         3         5         6        26
         2         2         3         5        26
         2         2         3        14        26
         2         3         6        25        26
         2         3        13        25        26
         2         3        13        14        26
         2         2         4         5        23
         2         1         2         4        23
         2         1         2        11        23
         2         2         5        23        26
         2         2        14        23        26
         2         2        11        14        23
         2        11        12        15        28
         2        12        15        16        28
         2        15        16        28        31
         2        11        15        27        28
         2        15        27        28        30
         2        15        28        30        31
         2        12        13        16        29
         2        13        16        17        29
         2        16        17        29        32
         2        12        16        28        29
         2        16        28        29        31
         2        16        29        31        32
         2        13        14        17        28
         2        14        17        18        28
         2        17        18        28        33
         2        13        17        28        29
         2        17        28        29        32
         2        17        28        32        33
         2        11        14        18        27
         2        11        15        18        27
         2        15        18        27        30
         2        14        18        27        28
         2        18        27        28        33
         2        18        27        30        33
         2        15        16        19        31
         2        16        19        20        31
         2        19        20        31        35
         2        15        19        30        31
         2        19        30        31        34
         2        19        31        34        35
         2        16        17        20        32
         2        17        20        21        32
         2        20        21        32        36
         2        16        20        31        32
         2        20        31        32        35
         2        20        32        35        36
         2        17        18        21        33
         2        18        21        22        33
         2        21        22        33        35
         2        17        21        32        33
         2        21        32        33        36
         2        21        33        35        36
         2        15        18        22        30
         2        15        19        22        30
         2        19        22        30        34
         2        18        22        30        33
         2        22        30        33        35
         2        22        30        34        35
         2        19        20        23        35
         2        20        23        24        35
         2        23        24        33        35
         2        19        23        34        35
         2        23        30        34        35
         2        23        30        33        35
         2        20        21        24        36
         2        21        24        25        36
         2        24        25        32        36
         2        20        24        35        36
         2        24        33        35        36
         2        24        32        33        36
         2        21        22        25        35
         2        22        25        26        35
         2        25        26        31        35
         2        21        25        35        36
         2        25        32        35        36
         2        25        31        32        35
         2        19        22        26        34
         2        19        23        26        34
         2        23        26        30        34
         2        22        26        34        35
         2        26        31        34        35
         2        26        30        31        34
         2        11        23        24        33
         2        11        12        24        33
         2        11        12        28        33
         2        11        23        30        33
         2        11        27        30        33
         2        11        27        28        33
         2        12        24        25        32
         2        12        13        25        32
         2        12        13        29        32
         2        12        24        32        33
         2        12        28        32        33
         2        12        28        29        32
         2        13        25        26        31
         2        13        14        26        31
         2        13        14        28        31
         2        13        25        31        32
         2        13        29        31        32
         2        13        28        29        31
         2        14        23        26        30
         2        11        14        23        30
         2        11        14        27        30
         2        14        26        30        31
         2        14        28        30        31
         2        14        27        28        30
