       N       E                     dE             d eps       ncg     rms          rms(c)
DAV:   1     0.426991294555E+03    0.42699E+03   -0.24362E+04  6336   0.130E+03
DAV:   2     0.647988345863E+01   -0.42051E+03   -0.39295E+03  7608   0.306E+02
DAV:   3    -0.462579665896E+02   -0.52738E+02   -0.52391E+02  9040   0.941E+01
DAV:   4    -0.522997215980E+02   -0.60418E+01   -0.59889E+01 11384   0.306E+01
DAV:   5    -0.530582332964E+02   -0.75851E+00   -0.75826E+00  9848   0.744E+00    0.160E+01
RMM:   6    -0.533138695225E+02   -0.25564E+00   -0.53314E+00  6891   0.645E+00    0.742E+00
RMM:   7    -0.536580934926E+02   -0.34422E+00   -0.95292E-01  7324   0.389E+00    0.285E+00
RMM:   8    -0.536606487044E+02   -0.25552E-02   -0.45276E-01  8182   0.218E+00    0.111E+00
RMM:   9    -0.536728659227E+02   -0.12217E-01   -0.10901E-01  8213   0.129E+00    0.457E-01
RMM:  10    -0.536824341394E+02   -0.95682E-02   -0.43597E-02  8682   0.796E-01    0.199E-01
RMM:  11    -0.536854342974E+02   -0.30002E-02   -0.17168E-02  7466   0.436E-01    0.108E-01
RMM:  12    -0.536866630429E+02   -0.12287E-02   -0.83480E-03  6938   0.314E-01    0.605E-02
RMM:  13    -0.536869643052E+02   -0.30126E-03   -0.25697E-03  5436   0.226E-01
   1 F= -.53686964E+02 E0= -.53686964E+02  d E =-.536870E+02  mag=     0.0000
       N       E                     dE             d eps       ncg     rms          rms(c)
DAV:   1    -0.538107315054E+02   -0.12407E+00   -0.30281E+01  6344   0.288E+01    0.128E+00
RMM:   2    -0.538656476962E+02   -0.54916E-01   -0.93704E-01  7872   0.433E+00    0.698E-01
RMM:   3    -0.538706001573E+02   -0.49525E-02   -0.21181E-01  9036   0.166E+00    0.351E-01
RMM:   4    -0.538733110835E+02   -0.27109E-02   -0.47936E-02  9620   0.788E-01    0.196E-01
RMM:   5    -0.538741806521E+02   -0.86957E-03   -0.13612E-02  8970   0.437E-01    0.439E-02
RMM:   6    -0.538742726211E+02   -0.91969E-04   -0.93723E-04  5012   0.278E-01
   2 F= -.53874273E+02 E0= -.53874273E+02  d E =-.187308E+00  mag=    -0.0000
       N       E                     dE             d eps       ncg     rms          rms(c)
DAV:   1    -0.538331618886E+02    0.41019E-01   -0.57410E+01  6336   0.397E+01    0.176E+00
RMM:   2    -0.539552473249E+02   -0.12209E+00   -0.19496E+00  7874   0.612E+00    0.948E-01
RMM:   3    -0.539750305981E+02   -0.19783E-01   -0.50506E-01  9244   0.248E+00    0.488E-01
RMM:   4    -0.539828402243E+02   -0.78096E-02   -0.11665E-01  9688   0.121E+00    0.281E-01
RMM:   5    -0.539849823628E+02   -0.21421E-02   -0.31470E-02  9354   0.658E-01    0.601E-02
RMM:   6    -0.539861528002E+02   -0.11704E-02   -0.11141E-02  7961   0.403E-01    0.444E-02
RMM:   7    -0.539863341424E+02   -0.18134E-03   -0.21873E-03  5761   0.273E-01
   3 F= -.53986334E+02 E0= -.53986334E+02  d E =-.299370E+00  mag=    -0.0000
       N       E                     dE             d eps       ncg     rms          rms(c)
DAV:   1    -0.540523089668E+02   -0.66156E-01   -0.29483E+01  6336   0.287E+01    0.102E+00
RMM:   2    -0.541120016768E+02   -0.59693E-01   -0.84688E-01  7919   0.420E+00    0.487E-01
RMM:   3    -0.541185881657E+02   -0.65865E-02   -0.14557E-01  9400   0.144E+00    0.245E-01
RMM:   4    -0.541216797548E+02   -0.30916E-02   -0.44266E-02  9533   0.693E-01    0.860E-02
RMM:   5    -0.541231202715E+02   -0.14405E-02   -0.14071E-02  8380   0.395E-01    0.388E-02
RMM:   6    -0.541232489681E+02   -0.12870E-03   -0.99806E-04  5003   0.264E-01
   4 F= -.54123249E+02 E0= -.54123249E+02  d E =-.136915E+00  mag=     0.0000
       N       E                     dE             d eps       ncg     rms          rms(c)
DAV:   1    -0.540154591314E+02    0.10766E+00   -0.69982E+01  6336   0.445E+01    0.164E+00
RMM:   2    -0.541705898559E+02   -0.15513E+00   -0.21887E+00  7925   0.669E+00    0.767E-01
RMM:   3    -0.541916305939E+02   -0.21041E-01   -0.40423E-01  9520   0.231E+00    0.378E-01
RMM:   4    -0.541995092160E+02   -0.78786E-02   -0.11094E-01  9695   0.112E+00    0.128E-01
RMM:   5    -0.542026528602E+02   -0.31436E-02   -0.32011E-02  9292   0.599E-01    0.587E-02
RMM:   6    -0.542036319992E+02   -0.97914E-03   -0.91604E-03  7635   0.374E-01    0.297E-02
RMM:   7    -0.542038178621E+02   -0.18586E-03   -0.21954E-03  5740   0.261E-01
   5 F= -.54203818E+02 E0= -.54203818E+02  d E =-.217484E+00  mag=     0.0000
       N       E                     dE             d eps       ncg     rms          rms(c)
DAV:   1    -0.542065214730E+02   -0.28895E-02   -0.14779E+01  6440   0.202E+01    0.702E-01
RMM:   2    -0.542318662689E+02   -0.25345E-01   -0.39866E-01  7910   0.289E+00    0.340E-01
RMM:   3    -0.542357155971E+02   -0.38493E-02   -0.82486E-02  9335   0.108E+00    0.181E-01
RMM:   4    -0.542373525562E+02   -0.16370E-02   -0.22563E-02  9365   0.524E-01    0.994E-02
RMM:   5    -0.542375601590E+02   -0.20760E-03   -0.29843E-03  5816   0.297E-01
   6 F= -.54237560E+02 E0= -.54237560E+02  d E =-.337423E-01  mag=    -0.0000
       N       E                     dE             d eps       ncg     rms          rms(c)
DAV:   1    -0.542103161302E+02    0.27036E-01   -0.17156E+01  6344   0.218E+01    0.755E-01
RMM:   2    -0.542408204992E+02   -0.30504E-01   -0.46878E-01  7909   0.314E+00    0.367E-01
RMM:   3    -0.542458926413E+02   -0.50721E-02   -0.99029E-02  9432   0.118E+00    0.202E-01
RMM:   4    -0.542478445564E+02   -0.19519E-02   -0.26915E-02  9428   0.573E-01    0.112E-01
RMM:   5    -0.542483311840E+02   -0.48663E-03   -0.59857E-03  6875   0.324E-01
   7 F= -.54248331E+02 E0= -.54248331E+02  d E =-.445133E-01  mag=    -0.0000
       N       E                     dE             d eps       ncg     rms          rms(c)
DAV:   1    -0.542568609489E+02   -0.90164E-02   -0.10126E+01  6504   0.163E+01    0.944E-01
RMM:   2    -0.542624991867E+02   -0.56382E-02   -0.36129E-01  7827   0.271E+00    0.493E-01
RMM:   3    -0.542592008297E+02    0.32984E-02   -0.79182E-02  8552   0.108E+00    0.209E-01
RMM:   4    -0.542606578595E+02   -0.14570E-02   -0.22031E-02  9198   0.517E-01    0.124E-01
RMM:   5    -0.542609253883E+02   -0.26753E-03   -0.45417E-03  6236   0.301E-01
   8 F= -.54260925E+02 E0= -.54260925E+02  d E =-.125942E-01  mag=     0.0000
       N       E                     dE             d eps       ncg     rms          rms(c)
DAV:   1    -0.542624214457E+02   -0.17636E-02   -0.14215E-01  8504   0.190E+00    0.112E-01
RMM:   2    -0.542623637142E+02    0.57732E-04   -0.41242E-03  6946   0.306E-01
   9 F= -.54262364E+02 E0= -.54262364E+02  d E =-.140325E-01  mag=     0.0000
       N       E                     dE             d eps       ncg     rms          rms(c)
DAV:   1    -0.542607634980E+02    0.16579E-02   -0.23041E+00  6620   0.754E+00    0.277E-01
RMM:   2    -0.542675949918E+02   -0.68315E-02   -0.80256E-02  7692   0.129E+00    0.130E-01
RMM:   3    -0.542675789643E+02    0.16027E-04   -0.80853E-03  8127   0.378E-01    0.850E-02
RMM:   4    -0.542675416741E+02    0.37290E-04   -0.24714E-03  6274   0.201E-01
  10 F= -.54267542E+02 E0= -.54267542E+02  d E =-.517796E-02  mag=     0.0000
       N       E                     dE             d eps       ncg     rms          rms(c)
DAV:   1    -0.542603779762E+02    0.72010E-02   -0.23162E+00  6384   0.758E+00    0.288E-01
RMM:   2    -0.542677067541E+02   -0.73288E-02   -0.86536E-02  7692   0.132E+00    0.133E-01
RMM:   3    -0.542681023194E+02   -0.39557E-03   -0.11456E-02  8440   0.424E-01    0.877E-02
RMM:   4    -0.542682109098E+02   -0.10859E-03   -0.39052E-03  6801   0.225E-01
  11 F= -.54268211E+02 E0= -.54268211E+02  d E =-.584720E-02  mag=     0.0000
