 vasp.5.4.4.18Apr17-6-g9f103f2a35 (build Jun 03 2020 22:41:46) complex          
  
 executed on             LinuxIFC date 2020.06.15  23:29:32
 running on    4 total cores
 distrk:  each k-point on    4 cores,    1 groups
 distr:  one band on NCORES_PER_BAND=   1 cores,    4 groups


--------------------------------------------------------------------------------------------------------


 INCAR:
 POTCAR:    PAW_PBE Li_sv 10Sep2004               
 POTCAR:    PAW_PBE P 17Jan2003                   
 POTCAR:    PAW_PBE S 17Jan2003                   
 POTCAR:    PAW_PBE Cl 17Jan2003                  
 POTCAR:    PAW_PBE Li_sv 10Sep2004               
   VRHFIN =Li: 1s2s2p                                                           
   LEXCH  = PE                                                                  
   EATOM  =   202.7858 eV,   14.9043 Ry                                         
                                                                                
   TITEL  = PAW_PBE Li_sv 10Sep2004                                             
   LULTRA =        F    use ultrasoft PP ?                                      
   IUNSCR =        0    unscreen: 0-lin 1-nonlin 2-no                           
   RPACOR =     .000    partial core radius                                     
   POMASS =    7.010; ZVAL   =    3.000    mass and valenz                      
   RCORE  =    1.700    outmost cutoff radius                                   
   RWIGS  =    2.050; RWIGS  =    1.085    wigner-seitz radius (au A)           
   ENMAX  =  499.034; ENMIN  =  374.276 eV                                      
   ICORE  =        2    local potential                                         
   LCOR   =        T    correct aug charges                                     
   LPAW   =        T    paw PP                                                  
   EAUG   =  628.945                                                            
   RMAX   =    2.064    core radius for proj-oper                               
   RAUG   =    1.300    factor for augmentation sphere                          
   RDEP   =    1.728    radius for radial grids                                 
   QCUT   =   -6.056; QGAM   =   12.112    optimization parameters              
                                                                                
   Description                                                                  
     l     E      TYP  RCUT    TYP  RCUT                                        
     0   .000     23  1.400                                                     
     0   .000     23  1.700                                                     
     1   .000     23  1.400                                                     
     2   .000     23  1.400                                                     
  local pseudopotential read in
  atomic valenz-charges read in
  non local Contribution for L=           0  read in
    real space projection operators read in
  non local Contribution for L=           0  read in
    real space projection operators read in
  non local Contribution for L=           1  read in
    real space projection operators read in
    PAW grid and wavefunctions read in
 
   number of l-projection  operators is LMAX  =           3
   number of lm-projection operators is LMMAX =           5
 
 POTCAR:    PAW_PBE P 17Jan2003                   
   VRHFIN =P : s2p3                                                             
   LEXCH  = PE                                                                  
   EATOM  =   176.0430 eV,   12.9388 Ry                                         
                                                                                
   TITEL  = PAW_PBE P 17Jan2003                                                 
   LULTRA =        F    use ultrasoft PP ?                                      
   IUNSCR =        1    unscreen: 0-lin 1-nonlin 2-no                           
   RPACOR =    1.500    partial core radius                                     
   POMASS =   30.974; ZVAL   =    5.000    mass and valenz                      
   RCORE  =    1.900    outmost cutoff radius                                   
   RWIGS  =    2.330; RWIGS  =    1.233    wigner-seitz radius (au A)           
   ENMAX  =  270.000; ENMIN  =  191.280 eV                                      
   ICORE  =        2    local potential                                         
   LCOR   =        T    correct aug charges                                     
   LPAW   =        T    paw PP                                                  
   EAUG   =  342.924                                                            
   DEXC   =    -.002                                                            
   RMAX   =    2.887    core radius for proj-oper                               
   RAUG   =    1.300    factor for augmentation sphere                          
   RDEP   =    1.931    radius for radial grids                                 
   QCUT   =   -4.330; QGAM   =    8.659    optimization parameters              
                                                                                
   Description                                                                  
     l     E      TYP  RCUT    TYP  RCUT                                        
     0   .000     23  1.900                                                     
     0   .000     23  1.900                                                     
     1   .000     23  1.900                                                     
     1   .000     23  1.900                                                     
     2   .000     23  1.900                                                     
  local pseudopotential read in
  partial core-charges read in
  atomic valenz-charges read in
  non local Contribution for L=           0  read in
    real space projection operators read in
  non local Contribution for L=           0  read in
    real space projection operators read in
  non local Contribution for L=           1  read in
    real space projection operators read in
  non local Contribution for L=           1  read in
    real space projection operators read in
    PAW grid and wavefunctions read in
 
   number of l-projection  operators is LMAX  =           4
   number of lm-projection operators is LMMAX =           8
 
 POTCAR:    PAW_PBE S 17Jan2003                   
   VRHFIN =S : s2p4                                                             
   LEXCH  = PE                                                                  
   EATOM  =   276.8230 eV,   20.3459 Ry                                         
                                                                                
   TITEL  = PAW_PBE S 17Jan2003                                                 
   LULTRA =        F    use ultrasoft PP ?                                      
   IUNSCR =        1    unscreen: 0-lin 1-nonlin 2-no                           
   RPACOR =    1.500    partial core radius                                     
   POMASS =   32.066; ZVAL   =    6.000    mass and valenz                      
   RCORE  =    1.900    outmost cutoff radius                                   
   RWIGS  =    2.200; RWIGS  =    1.164    wigner-seitz radius (au A)           
   ENMAX  =  280.000; ENMIN  =  194.016 eV                                      
   ICORE  =        2    local potential                                         
   LCOR   =        T    correct aug charges                                     
   LPAW   =        T    paw PP                                                  
   EAUG   =  335.092                                                            
   DEXC   =     .000                                                            
   RMAX   =    2.867    core radius for proj-oper                               
   RAUG   =    1.300    factor for augmentation sphere                          
   RDEP   =    1.954    radius for radial grids                                 
   QCUT   =   -4.360; QGAM   =    8.721    optimization parameters              
                                                                                
   Description                                                                  
     l     E      TYP  RCUT    TYP  RCUT                                        
     0   .000     23  1.900                                                     
     0   .000     23  1.900                                                     
     1   .000     23  1.900                                                     
     1   .000     23  1.900                                                     
     2   .000     23  1.900                                                     
  local pseudopotential read in
  partial core-charges read in
  atomic valenz-charges read in
  non local Contribution for L=           0  read in
    real space projection operators read in
  non local Contribution for L=           0  read in
    real space projection operators read in
  non local Contribution for L=           1  read in
    real space projection operators read in
  non local Contribution for L=           1  read in
    real space projection operators read in
    PAW grid and wavefunctions read in
 
   number of l-projection  operators is LMAX  =           4
   number of lm-projection operators is LMMAX =           8
 
 POTCAR:    PAW_PBE Cl 17Jan2003                  
   VRHFIN =Cl: s2p5                                                             
   LEXCH  = PE                                                                  
   EATOM  =   409.7259 eV,   30.1140 Ry                                         
                                                                                
   TITEL  = PAW_PBE Cl 17Jan2003                                                
   LULTRA =        F    use ultrasoft PP ?                                      
   IUNSCR =        1    unscreen: 0-lin 1-nonlin 2-no                           
   RPACOR =    1.500    partial core radius                                     
   POMASS =   35.453; ZVAL   =    7.000    mass and valenz                      
   RCORE  =    1.900    outmost cutoff radius                                   
   RWIGS  =    2.100; RWIGS  =    1.111    wigner-seitz radius (au A)           
   ENMAX  =  280.000; ENMIN  =  196.854 eV                                      
   ICORE  =        2    local potential                                         
   LCOR   =        T    correct aug charges                                     
   LPAW   =        T    paw PP                                                  
   EAUG   =  356.192                                                            
   DEXC   =     .000                                                            
   RMAX   =    2.846    core radius for proj-oper                               
   RAUG   =    1.300    factor for augmentation sphere                          
   RDEP   =    2.020    radius for radial grids                                 
   QCUT   =   -4.392; QGAM   =    8.784    optimization parameters              
                                                                                
   Description                                                                  
     l     E      TYP  RCUT    TYP  RCUT                                        
     0   .000     23  1.900                                                     
     0   .000     23  1.900                                                     
     1   .000     23  1.900                                                     
     1   .000     23  1.900                                                     
     2   .000     23  1.900                                                     
  local pseudopotential read in
  partial core-charges read in
  atomic valenz-charges read in
  non local Contribution for L=           0  read in
    real space projection operators read in
  non local Contribution for L=           0  read in
    real space projection operators read in
  non local Contribution for L=           1  read in
    real space projection operators read in
  non local Contribution for L=           1  read in
    real space projection operators read in
    PAW grid and wavefunctions read in
 
   number of l-projection  operators is LMAX  =           4
   number of lm-projection operators is LMMAX =           8
 
 Optimization of the real space projectors (new method)

 maximal supplied QI-value         = 22.11
 optimisation between [QCUT,QGAM] = [ 11.50, 23.22] = [ 37.02,150.92] Ry 
 Optimized for a Real-space Cutoff    1.08 Angstroem

   l    n(q)    QCUT    max X(q) W(low)/X(q) W(high)/X(q)  e(spline) 
   0      7    11.497     5.145    0.78E-05    0.24E-04    0.84E-08
   0      7    11.497     9.937    0.65E-04    0.14E-03    0.28E-07
   1      7    11.497     8.983    0.21E-03    0.43E-03    0.90E-07
 Optimization of the real space projectors (new method)

 maximal supplied QI-value         = 19.84
 optimisation between [QCUT,QGAM] = [ 11.51, 23.22] = [ 37.09,150.92] Ry 
 Optimized for a Real-space Cutoff    1.21 Angstroem

   l    n(q)    QCUT    max X(q) W(low)/X(q) W(high)/X(q)  e(spline) 
   0      8    11.508     6.651    0.19E-04    0.31E-05    0.49E-08
   0      8    11.508    90.285    0.95E-04    0.17E-03    0.51E-07
   1      8    11.508     4.328    0.14E-04    0.32E-04    0.22E-07
   1      8    11.508    54.583    0.16E-03    0.71E-04    0.89E-07
 Optimization of the real space projectors (new method)

 maximal supplied QI-value         = 19.84
 optimisation between [QCUT,QGAM] = [ 11.51, 23.22] = [ 37.09,150.92] Ry 
 Optimized for a Real-space Cutoff    1.21 Angstroem

   l    n(q)    QCUT    max X(q) W(low)/X(q) W(high)/X(q)  e(spline) 
   0      8    11.508     5.487    0.18E-04    0.22E-05    0.47E-08
   0      8    11.508    85.627    0.96E-04    0.18E-03    0.54E-07
   1      8    11.508     3.530    0.17E-04    0.28E-04    0.21E-07
   1      8    11.508    42.714    0.18E-03    0.63E-04    0.92E-07
 Optimization of the real space projectors (new method)

 maximal supplied QI-value         = 19.84
 optimisation between [QCUT,QGAM] = [ 11.51, 23.22] = [ 37.09,150.92] Ry 
 Optimized for a Real-space Cutoff    1.21 Angstroem

   l    n(q)    QCUT    max X(q) W(low)/X(q) W(high)/X(q)  e(spline) 
   0      8    11.508     4.846    0.17E-04    0.72E-06    0.45E-08
   0      8    11.508    64.115    0.84E-04    0.16E-03    0.48E-07
   1      8    11.508     3.092    0.23E-04    0.25E-04    0.20E-07
   1      8    11.508    37.586    0.18E-03    0.67E-04    0.95E-07
  PAW_PBE Li_sv 10Sep2004               :
 energy of atom  1       EATOM= -202.7858
 kinetic energy error for atom=    0.0130 (will be added to EATOM!!)
  PAW_PBE P 17Jan2003                   :
 energy of atom  2       EATOM= -176.0430
 kinetic energy error for atom=    0.0011 (will be added to EATOM!!)
  PAW_PBE S 17Jan2003                   :
 energy of atom  3       EATOM= -276.8230
 kinetic energy error for atom=    0.0016 (will be added to EATOM!!)
  PAW_PBE Cl 17Jan2003                  :
 energy of atom  4       EATOM= -409.7259
 kinetic energy error for atom=    0.0023 (will be added to EATOM!!)
 
 
 POSCAR: Li6 P1 S5 Cl1                           
  positions in direct lattice
  No initial velocities read in
 exchange correlation table for  LEXCH =        8
   RHO(1)=    0.500       N(1)  =     2000
   RHO(2)=  100.500       N(2)  =     4000
 


--------------------------------------------------------------------------------------------------------


 ion  position               nearest neighbor table
   1  0.370  0.018  0.018-   9 2.44  12 2.44   8 2.46  13 2.59
   2  0.630  0.612  0.018-   4 2.33  10 2.44  12 2.44   8 2.46  13 2.59
   3  0.964  0.352  0.018-  11 2.44  12 2.44   8 2.46  13 2.59
   4  0.630  0.612  0.352-   2 2.33  10 2.44  11 2.44   8 2.46  13 2.59
   5  0.036  0.018  0.612-   6 2.33   9 2.44  10 2.44   8 2.46  13 2.59
   6  0.370  0.018  0.612-   5 2.33   9 2.44  11 2.44   8 2.46  13 2.59
   7  0.000  0.500  0.500-   9 2.04  10 2.04  11 2.04  12 2.04
   8  0.500  0.250  0.250-   3 2.46   1 2.46   5 2.46   6 2.46   2 2.46   4 2.46
   9  0.761  0.142  0.619-   7 2.04   5 2.44   6 2.44   1 2.44
  10  0.761  0.619  0.619-   7 2.04   4 2.44   5 2.44   2 2.44
  11  0.239  0.619  0.619-   7 2.04   3 2.44   4 2.44   6 2.44
  12  0.239  0.619  0.142-   7 2.04   3 2.44   1 2.44   2 2.44
  13  0.000  0.000  0.000-   2 2.59   1 2.59   5 2.59   6 2.59   4 2.59   3 2.59
 
  LATTYP: Found a face centered cubic cell.
 ALAT       =     9.8590000000
  
  Lattice vectors:
  
 A1 = (  -4.9295000000,   0.0000000000,   4.9295000000)
 A2 = (   0.0000000000,   4.9295000000,   4.9295000000)
 A3 = (  -4.9295000000,   4.9295000000,   0.0000000000)


Analysis of symmetry for initial positions (statically):
=====================================================================
 Subroutine PRICEL returns:
 Original cell was already a primitive cell.
 

 Routine SETGRP: Setting up the symmetry group for a 
 face centered cubic supercell.


 Subroutine GETGRP returns: Found  1 space group operations
 (whereof  1 operations were pure point group operations)
 out of a pool of 48 trial point group operations.


The static configuration has the point symmetry C_1 .


Analysis of symmetry for dynamics (positions and initial velocities):
=====================================================================
 Subroutine PRICEL returns:
 Original cell was already a primitive cell.
 

 Routine SETGRP: Setting up the symmetry group for a 
 face centered cubic supercell.


 Subroutine GETGRP returns: Found  1 space group operations
 (whereof  1 operations were pure point group operations)
 out of a pool of 48 trial point group operations.


The dynamic configuration has the point symmetry C_1 .


Analysis of structural, dynamic, and magnetic symmetry:
=====================================================================
 Subroutine PRICEL returns:
 Original cell was already a primitive cell.
 

 Routine SETGRP: Setting up the symmetry group for a 
 face centered cubic supercell.


 Subroutine GETGRP returns: Found  1 space group operations
 (whereof  1 operations were pure point group operations)
 out of a pool of 48 trial point group operations.


The magnetic configuration has the point symmetry C_1 .


 Subroutine INISYM returns: Found  1 space group operations
 (whereof  1 operations are pure point group operations),
 and found     1 'primitive' translations

 
 
 KPOINTS: pymatgen v2020.6.8 with grid density = 8

Automatic generation of k-mesh.
Space group operators:
 irot       det(A)        alpha          n_x          n_y          n_z        tau_x        tau_y        tau_z
    1     1.000000     0.000001     1.000000     0.000000     0.000000     0.000000     0.000000     0.000000
 
 Subroutine IBZKPT returns following result:
 ===========================================
 
 Found     36 irreducible k-points:
 
 Following reciprocal coordinates:
            Coordinates               Weight
  0.000000  0.000000  0.000000      1.000000
  0.250000  0.000000  0.000000      2.000000
  0.500000  0.000000  0.000000      1.000000
  0.000000  0.250000 -0.000000      2.000000
  0.250000  0.250000 -0.000000      2.000000
  0.500000  0.250000 -0.000000      2.000000
 -0.250000  0.250000 -0.000000      2.000000
  0.000000  0.500000 -0.000000      1.000000
  0.250000  0.500000 -0.000000      2.000000
  0.500000  0.500000 -0.000000      1.000000
 -0.000000 -0.000000  0.250000      2.000000
  0.250000 -0.000000  0.250000      2.000000
  0.500000 -0.000000  0.250000      2.000000
 -0.250000 -0.000000  0.250000      2.000000
 -0.000000  0.250000  0.250000      2.000000
  0.250000  0.250000  0.250000      2.000000
  0.500000  0.250000  0.250000      2.000000
 -0.250000  0.250000  0.250000      2.000000
 -0.000000  0.500000  0.250000      2.000000
  0.250000  0.500000  0.250000      2.000000
  0.500000  0.500000  0.250000      2.000000
 -0.250000  0.500000  0.250000      2.000000
 -0.000000 -0.250000  0.250000      2.000000
  0.250000 -0.250000  0.250000      2.000000
  0.500000 -0.250000  0.250000      2.000000
 -0.250000 -0.250000  0.250000      2.000000
 -0.000000 -0.000000  0.500000      1.000000
  0.250000 -0.000000  0.500000      2.000000
  0.500000 -0.000000  0.500000      1.000000
 -0.000000  0.250000  0.500000      2.000000
  0.250000  0.250000  0.500000      2.000000
  0.500000  0.250000  0.500000      2.000000
 -0.250000  0.250000  0.500000      2.000000
 -0.000000  0.500000  0.500000      1.000000
  0.250000  0.500000  0.500000      2.000000
  0.500000  0.500000  0.500000      1.000000
 
 Following cartesian coordinates:
            Coordinates               Weight
  0.000000  0.000000  0.000000      1.000000
  0.000000  0.000000 -0.050715      2.000000
  0.000000  0.000000 -0.101430      1.000000
  0.025358 -0.025358 -0.025358      2.000000
  0.025358 -0.025358 -0.076073      2.000000
  0.025358 -0.025358 -0.126788      2.000000
  0.025358 -0.025358  0.025358      2.000000
  0.050715 -0.050715 -0.050715      1.000000
  0.050715 -0.050715 -0.101430      2.000000
  0.050715 -0.050715 -0.152145      1.000000
 -0.025358 -0.025358  0.025358      2.000000
 -0.025358 -0.025358 -0.025358      2.000000
 -0.025358 -0.025358 -0.076073      2.000000
 -0.025358 -0.025358  0.076073      2.000000
  0.000000 -0.050715 -0.000000      2.000000
  0.000000 -0.050715 -0.050715      2.000000
  0.000000 -0.050715 -0.101430      2.000000
  0.000000 -0.050715  0.050715      2.000000
  0.025358 -0.076073 -0.025358      2.000000
  0.025358 -0.076073 -0.076073      2.000000
  0.025358 -0.076073 -0.126788      2.000000
  0.025358 -0.076073  0.025358      2.000000
 -0.050715  0.000000  0.050715      2.000000
 -0.050715  0.000000  0.000000      2.000000
 -0.050715  0.000000 -0.050715      2.000000
 -0.050715  0.000000  0.101430      2.000000
 -0.050715 -0.050715  0.050715      1.000000
 -0.050715 -0.050715  0.000000      2.000000
 -0.050715 -0.050715 -0.050715      1.000000
 -0.025358 -0.076073  0.025358      2.000000
 -0.025358 -0.076073 -0.025358      2.000000
 -0.025358 -0.076073 -0.076073      2.000000
 -0.025358 -0.076073  0.076073      2.000000
  0.000000 -0.101430 -0.000000      1.000000
  0.000000 -0.101430 -0.050715      2.000000
  0.000000 -0.101430 -0.101430      1.000000
 
 TETIRR: Found    192 inequivalent tetrahedra from      384


--------------------------------------------------------------------------------------------------------




 Dimension of arrays:
   k-points           NKPTS =     36   k-points in BZ     NKDIM =     36   number of bands    NBANDS=     44
   number of dos      NEDOS =    301   number of ions     NIONS =     13
   non local maximal  LDIM  =      4   non local SUM 2l+1 LMDIM =      8
   total plane-waves  NPLWV = 157464
   max r-space proj   IRMAX =   4937   max aug-charges    IRDMAX=  20904
   dimension x,y,z NGX =    54 NGY =   54 NGZ =   54
   dimension x,y,z NGXF=   108 NGYF=  108 NGZF=  108
   support grid    NGXF=   108 NGYF=  108 NGZF=  108
   ions per type =               6   1   5   1
   NGX,Y,Z   is equivalent  to a cutoff of  12.88, 12.88, 12.88 a.u.
   NGXF,Y,Z  is equivalent  to a cutoff of  25.75, 25.75, 25.75 a.u.

 SYSTEM =  unknown system                          
 POSCAR =  Li6 P1 S5 Cl1                           

 Startparameter for this run:
   NWRITE =      2    write-flag & timer
   PREC   = accura    normal or accurate (medium, high low for compatibility)
   ISTART =      0    job   : 0-new  1-cont  2-samecut
   ICHARG =      1    charge: 1-file 2-atom 10-const
   ISPIN  =      2    spin polarized calculation?
   LNONCOLLINEAR =      F non collinear calculations
   LSORBIT =      F    spin-orbit coupling
   INIWAV =      1    electr: 0-lowe 1-rand  2-diag
   LASPH  =      F    aspherical Exc in radial PAW
   METAGGA=      F    non-selfconsistent MetaGGA calc.

 Electronic Relaxation 1
   ENCUT  =  520.0 eV  38.22 Ry    6.18 a.u.  12.96 12.96 12.96*2*pi/ulx,y,z
   ENINI  =  520.0     initial cutoff
   ENAUG  =  628.9 eV  augmentation charge cutoff
   NELM   =    100;   NELMIN=  2; NELMDL= -5     # of ELM steps 
   EDIFF  = 0.7E-03   stopping-criterion for ELM
   LREAL  =      T    real-space projection
   NLSPLINE    = F    spline interpolate recip. space projectors
   LCOMPAT=      F    compatible to vasp.4.4
   GGA_COMPAT  = T    GGA compatible to vasp.4.4-vasp.4.6
   LMAXPAW     = -100 max onsite density
   LMAXMIX     =    2 max onsite mixed and CHGCAR
   VOSKOWN=      0    Vosko Wilk Nusair interpolation
   ROPT   =   -0.00025  -0.00025  -0.00025  -0.00025
 Ionic relaxation
   EDIFFG = 0.7E-02   stopping-criterion for IOM
   NSW    =     99    number of steps for IOM
   NBLOCK =      1;   KBLOCK =     99    inner block; outer block 
   IBRION =      2    ionic relax: 0-MD 1-quasi-New 2-CG
   NFREE  =      1    steps in history (QN), initial steepest desc. (CG)
   ISIF   =      3    stress and relaxation
   IWAVPR =     11    prediction:  0-non 1-charg 2-wave 3-comb
   ISYM   =      2    0-nonsym 1-usesym 2-fastsym
   LCORR  =      T    Harris-Foulkes like correction to forces

   POTIM  = 0.5000    time-step for ionic-motion
   TEIN   =    0.0    initial temperature
   TEBEG  =    0.0;   TEEND  =   0.0 temperature during run
   SMASS  =  -3.00    Nose mass-parameter (am)
   estimated Nose-frequenzy (Omega)   =  0.10E-29 period in steps =****** mass=  -0.111E-26a.u.
   SCALEE = 1.0000    scale energy and forces
   NPACO  =    256;   APACO  = 16.0  distance and # of slots for P.C.
   PSTRESS=    0.0 pullay stress

  Mass of Ions in am
   POMASS =   7.01 30.97 32.07 35.45
  Ionic Valenz
   ZVAL   =   3.00  5.00  6.00  7.00
  Atomic Wigner-Seitz radii
   RWIGS  =  -1.00 -1.00 -1.00 -1.00
  virtual crystal weights 
   VCA    =   1.00  1.00  1.00  1.00
   NELECT =      60.0000    total number of electrons
   NUPDOWN=      -1.0000    fix difference up-down

 DOS related values:
   EMIN   =  10.00;   EMAX   =-10.00  energy-range for DOS
   EFERMI =   0.00
   ISMEAR =    -5;   SIGMA  =   0.05  broadening in eV -4-tet -1-fermi 0-gaus

 Electronic relaxation 2 (details)
   IALGO  =     68    algorithm
   LDIAG  =      T    sub-space diagonalisation (order eigenvalues)
   LSUBROT=      F    optimize rotation matrix (better conditioning)
   TURBO    =      0    0=normal 1=particle mesh
   IRESTART =      0    0=no restart 2=restart with 2 vectors
   NREBOOT  =      0    no. of reboots
   NMIN     =      0    reboot dimension
   EREF     =   0.00    reference energy to select bands
   IMIX   =      4    mixing-type and parameters
     AMIX     =   0.40;   BMIX     =  1.00
     AMIX_MAG =   1.60;   BMIX_MAG =  1.00
     AMIN     =   0.10
     WC   =   100.;   INIMIX=   1;  MIXPRE=   1;  MAXMIX= -45

 Intra band minimization:
   WEIMIN = 0.0010     energy-eigenvalue tresh-hold
   EBREAK =  0.37E-05  absolut break condition
   DEPER  =   0.30     relativ break condition  

   TIME   =   0.40     timestep for ELM

  volume/ion in A,a.u.               =      18.43       124.36
  Fermi-wavevector in a.u.,A,eV,Ry     =   1.031919  1.950045 14.488263  1.064857
  Thomas-Fermi vector in A             =   2.166091
 
 Write flags
   LWAVE        =      F    write WAVECAR
   LDOWNSAMPLE  =      F    k-point downsampling of WAVECAR
   LCHARG       =      T    write CHGCAR
   LVTOT        =      F    write LOCPOT, total local potential
   LVHAR        =      F    write LOCPOT, Hartree potential only
   LELF         =      F    write electronic localiz. function (ELF)
   LORBIT       =     11    0 simple, 1 ext, 2 COOP (PROOUT), +10 PAW based schemes


 Dipole corrections
   LMONO  =      F    monopole corrections only (constant potential shift)
   LDIPOL =      F    correct potential (dipole corrections)
   IDIPOL =      0    1-x, 2-y, 3-z, 4-all directions 
   EPSILON=  1.0000000 bulk dielectric constant

 Exchange correlation treatment:
   GGA     =    --    GGA type
   LEXCH   =     8    internal setting for exchange type
   VOSKOWN=      0    Vosko Wilk Nusair interpolation
   LHFCALC =     F    Hartree Fock is set to
   LHFONE  =     F    Hartree Fock one center treatment
   AEXX    =    0.0000 exact exchange contribution

 Linear response parameters
   LEPSILON=     F    determine dielectric tensor
   LRPA    =     F    only Hartree local field effects (RPA)
   LNABLA  =     F    use nabla operator in PAW spheres
   LVEL    =     F    velocity operator in full k-point grid
   LINTERFAST=   F  fast interpolation
   KINTER  =     0    interpolate to denser k-point grid
   CSHIFT  =0.1000    complex shift for real part using Kramers Kronig
   OMEGAMAX=  -1.0    maximum frequency
   DEG_THRESHOLD= 0.2000000E-02 threshold for treating states as degnerate
   RTIME   =   -0.100 relaxation time in fs
  (WPLASMAI=    0.000 imaginary part of plasma frequency in eV, 0.658/RTIME)
   DFIELD  = 0.0000000 0.0000000 0.0000000 field for delta impulse in time
 
 Orbital magnetization related:
   ORBITALMAG=     F  switch on orbital magnetization
   LCHIMAG   =     F  perturbation theory with respect to B field
   DQ        =  0.001000  dq finite difference perturbation B field
   LLRAUG    =     F  two centre corrections for induced B field



--------------------------------------------------------------------------------------------------------


 conjugate gradient relaxation of ions
 charge density and potential will be updated during run
 spin polarized calculation
 RMM-DIIS sequential band-by-band and
  variant of blocked Davidson during initial phase
 perform sub-space diagonalisation
    before iterative eigenvector-optimisation
 modified Broyden-mixing scheme, WC =      100.0
 initial mixing is a Kerker type mixing with AMIX =  0.4000 and BMIX =      1.0000
 Hartree-type preconditioning will be used
 using additional bands           14
 real space projection scheme for non local part
 use partial core corrections
 calculate Harris-corrections to forces 
   (improved forces if not selfconsistent)
 use gradient corrections 
 use of overlap-Matrix (Vanderbilt PP)
 Fermi weights with tetrahedron method with Bloechl corrections


--------------------------------------------------------------------------------------------------------


  energy-cutoff  :      520.00
  volume of cell :      239.57
      direct lattice vectors                 reciprocal lattice vectors
    -4.929500000  0.000000000 -4.929500000     0.000000000  0.000000000 -0.202860331
     4.929500000 -4.929500000  0.000000000     0.101430165 -0.101430165 -0.101430165
    -4.929500000 -4.929500000  0.000000000    -0.101430165 -0.101430165  0.101430165

  length of vectors
     6.971365756  6.971365756  6.971365756     0.202860331  0.175682200  0.175682200


 
 k-points in units of 2pi/SCALE and weight: pymatgen v2020.6.8 with grid density = 8
   0.00000000  0.00000000  0.00000000       0.016
   0.00000000  0.00000000 -0.05071508       0.031
   0.00000000  0.00000000 -0.10143017       0.016
   0.02535754 -0.02535754 -0.02535754       0.031
   0.02535754 -0.02535754 -0.07607262       0.031
   0.02535754 -0.02535754 -0.12678771       0.031
   0.02535754 -0.02535754  0.02535754       0.031
   0.05071508 -0.05071508 -0.05071508       0.016
   0.05071508 -0.05071508 -0.10143017       0.031
   0.05071508 -0.05071508 -0.15214525       0.016
  -0.02535754 -0.02535754  0.02535754       0.031
  -0.02535754 -0.02535754 -0.02535754       0.031
  -0.02535754 -0.02535754 -0.07607262       0.031
  -0.02535754 -0.02535754  0.07607262       0.031
  -0.00000000 -0.05071508  0.00000000       0.031
  -0.00000000 -0.05071508 -0.05071508       0.031
  -0.00000000 -0.05071508 -0.10143017       0.031
  -0.00000000 -0.05071508  0.05071508       0.031
   0.02535754 -0.07607262 -0.02535754       0.031
   0.02535754 -0.07607262 -0.07607262       0.031
   0.02535754 -0.07607262 -0.12678771       0.031
   0.02535754 -0.07607262  0.02535754       0.031
  -0.05071508 -0.00000000  0.05071508       0.031
  -0.05071508 -0.00000000 -0.00000000       0.031
  -0.05071508 -0.00000000 -0.05071508       0.031
  -0.05071508 -0.00000000  0.10143017       0.031
  -0.05071508 -0.05071508  0.05071508       0.016
  -0.05071508 -0.05071508  0.00000000       0.031
  -0.05071508 -0.05071508 -0.05071508       0.016
  -0.02535754 -0.07607262  0.02535754       0.031
  -0.02535754 -0.07607262 -0.02535754       0.031
  -0.02535754 -0.07607262 -0.07607262       0.031
  -0.02535754 -0.07607262  0.07607262       0.031
  -0.00000000 -0.10143017  0.00000000       0.016
  -0.00000000 -0.10143017 -0.05071508       0.031
  -0.00000000 -0.10143017 -0.10143017       0.016
 
 k-points in reciprocal lattice and weights: pymatgen v2020.6.8 with grid density = 8
   0.00000000  0.00000000  0.00000000       0.016
   0.25000000  0.00000000  0.00000000       0.031
   0.50000000  0.00000000  0.00000000       0.016
   0.00000000  0.25000000 -0.00000000       0.031
   0.25000000  0.25000000 -0.00000000       0.031
   0.50000000  0.25000000 -0.00000000       0.031
  -0.25000000  0.25000000 -0.00000000       0.031
   0.00000000  0.50000000 -0.00000000       0.016
   0.25000000  0.50000000 -0.00000000       0.031
   0.50000000  0.50000000 -0.00000000       0.016
  -0.00000000 -0.00000000  0.25000000       0.031
   0.25000000 -0.00000000  0.25000000       0.031
   0.50000000 -0.00000000  0.25000000       0.031
  -0.25000000 -0.00000000  0.25000000       0.031
  -0.00000000  0.25000000  0.25000000       0.031
   0.25000000  0.25000000  0.25000000       0.031
   0.50000000  0.25000000  0.25000000       0.031
  -0.25000000  0.25000000  0.25000000       0.031
  -0.00000000  0.50000000  0.25000000       0.031
   0.25000000  0.50000000  0.25000000       0.031
   0.50000000  0.50000000  0.25000000       0.031
  -0.25000000  0.50000000  0.25000000       0.031
  -0.00000000 -0.25000000  0.25000000       0.031
   0.25000000 -0.25000000  0.25000000       0.031
   0.50000000 -0.25000000  0.25000000       0.031
  -0.25000000 -0.25000000  0.25000000       0.031
  -0.00000000 -0.00000000  0.50000000       0.016
   0.25000000 -0.00000000  0.50000000       0.031
   0.50000000 -0.00000000  0.50000000       0.016
  -0.00000000  0.25000000  0.50000000       0.031
   0.25000000  0.25000000  0.50000000       0.031
   0.50000000  0.25000000  0.50000000       0.031
  -0.25000000  0.25000000  0.50000000       0.031
  -0.00000000  0.50000000  0.50000000       0.016
   0.25000000  0.50000000  0.50000000       0.031
   0.50000000  0.50000000  0.50000000       0.016
 
 position of ions in fractional coordinates (direct lattice) 
   0.37040000  0.01800000  0.01800000
   0.62960000  0.61160000  0.01800000
   0.96400000  0.35240000  0.01800000
   0.62960000  0.61160000  0.35240000
   0.03600000  0.01800000  0.61160000
   0.37040000  0.01800000  0.61160000
   0.00000000  0.50000000  0.50000000
   0.50000000  0.25000000  0.25000000
   0.76106000  0.14159000  0.61947000
   0.76106000  0.61947000  0.61947000
   0.23894000  0.61947000  0.61947000
   0.23894000  0.61947000  0.14159000
   0.00000000  0.00000000  0.00000000
 
 position of ions in cartesian coordinates  (Angst):
  -1.82588680 -0.17746200 -1.82588680
  -0.17746200 -3.10361320 -3.10361320
  -3.10361320 -1.82588680 -4.75203800
  -1.82588680 -4.75203800 -3.10361320
  -3.10361320 -3.10361320 -0.17746200
  -4.75203800 -3.10361320 -1.82588680
   0.00000000 -4.92950000  0.00000000
  -2.46475000 -2.46475000 -2.46475000
  -6.10735473 -3.75164527 -3.75164527
  -3.75164527 -6.10735473 -3.75164527
  -1.17785473 -6.10735473 -1.17785473
   1.17785473 -3.75164527 -1.17785473
   0.00000000  0.00000000  0.00000000
 


--------------------------------------------------------------------------------------------------------


 k-point  1 :   0.0000 0.0000 0.0000  plane waves:    6423
 k-point  2 :   0.2500 0.0000 0.0000  plane waves:    6422
 k-point  3 :   0.5000 0.0000 0.0000  plane waves:    6434
 k-point  4 :   0.0000 0.2500-0.0000  plane waves:    6432
 k-point  5 :   0.2500 0.2500-0.0000  plane waves:    6445
 k-point  6 :   0.5000 0.2500-0.0000  plane waves:    6445
 k-point  7 :  -0.2500 0.2500-0.0000  plane waves:    6432
 k-point  8 :   0.0000 0.5000-0.0000  plane waves:    6442
 k-point  9 :   0.2500 0.5000-0.0000  plane waves:    6447
 k-point 10 :   0.5000 0.5000-0.0000  plane waves:    6442
 k-point 11 :  -0.0000-0.0000 0.2500  plane waves:    6432
 k-point 12 :   0.2500-0.0000 0.2500  plane waves:    6432
 k-point 13 :   0.5000-0.0000 0.2500  plane waves:    6445
 k-point 14 :  -0.2500-0.0000 0.2500  plane waves:    6445
 k-point 15 :  -0.0000 0.2500 0.2500  plane waves:    6422
 k-point 16 :   0.2500 0.2500 0.2500  plane waves:    6447
 k-point 17 :   0.5000 0.2500 0.2500  plane waves:    6476
 k-point 18 :  -0.2500 0.2500 0.2500  plane waves:    6447
 k-point 19 :  -0.0000 0.5000 0.2500  plane waves:    6445
 k-point 20 :   0.2500 0.5000 0.2500  plane waves:    6445
 k-point 21 :   0.5000 0.5000 0.2500  plane waves:    6445
 k-point 22 :  -0.2500 0.5000 0.2500  plane waves:    6445
 k-point 23 :  -0.0000-0.2500 0.2500  plane waves:    6447
 k-point 24 :   0.2500-0.2500 0.2500  plane waves:    6422
 k-point 25 :   0.5000-0.2500 0.2500  plane waves:    6447
 k-point 26 :  -0.2500-0.2500 0.2500  plane waves:    6476
 k-point 27 :  -0.0000-0.0000 0.5000  plane waves:    6442
 k-point 28 :   0.2500-0.0000 0.5000  plane waves:    6447
 k-point 29 :   0.5000-0.0000 0.5000  plane waves:    6442
 k-point 30 :  -0.0000 0.2500 0.5000  plane waves:    6445
 k-point 31 :   0.2500 0.2500 0.5000  plane waves:    6445
 k-point 32 :   0.5000 0.2500 0.5000  plane waves:    6445
 k-point 33 :  -0.2500 0.2500 0.5000  plane waves:    6445
 k-point 34 :  -0.0000 0.5000 0.5000  plane waves:    6434
 k-point 35 :   0.2500 0.5000 0.5000  plane waves:    6476
 k-point 36 :   0.5000 0.5000 0.5000  plane waves:    6434

 maximum and minimum number of plane-waves per node :      6476     6422

 maximum number of plane-waves:      6476
 maximum index in each direction: 
   IXMAX=   13   IYMAX=   13   IZMAX=   12
   IXMIN=  -13   IYMIN=  -13   IZMIN=  -13


 serial   3D FFT for wavefunctions
 parallel 3D FFT for charge:
    minimum data exchange during FFTs selected (reduces bandwidth)


 total amount of memory used by VASP MPI-rank0   172363. kBytes
=======================================================================

   base      :      30000. kBytes
   nonlr-proj:       4303. kBytes
   fftplans  :      11412. kBytes
   grid      :      43390. kBytes
   one-center:         79. kBytes
   wavefun   :      83179. kBytes
 
     INWAV:  cpu time    0.0001: real time    0.0001
 Broyden mixing: mesh for mixing (old mesh)
   NGX = 25   NGY = 25   NGZ = 25
  (NGX  =108   NGY  =108   NGZ  =108)
  gives a total of  15625 points

 initial charge density was supplied:
 charge density of overlapping atoms calculated
 number of electron      60.0000000 magnetization       7.8000000
 keeping initial charge density in first step


--------------------------------------------------------------------------------------------------------


 Maximum index for non-local projection operator         4753
 Maximum index for augmentation-charges         5022 (set IRDMAX)


--------------------------------------------------------------------------------------------------------


 First call to EWALD:  gamma=   0.285
 Maximum number of real-space cells 3x 3x 3
 Maximum number of reciprocal cells 3x 3x 3

    FEWALD:  cpu time    0.0015: real time    0.0015


--------------------------------------- Iteration      1(   1)  ---------------------------------------


    POTLOK:  cpu time    0.5493: real time    0.5493
    SETDIJ:  cpu time    0.0212: real time    0.0212
     EDDAV:  cpu time   34.2278: real time   34.2291
 BZINTS: Fermi energy: 13.705854; 60.000000 electrons
         Band energy:-212.293453;  BLOECHL correction: -0.128093
       DOS:  cpu time    0.0250: real time    0.0250
    --------------------------------------------
      LOOP:  cpu time   34.8233: real time   34.8246

 eigenvalue-minimisations  :  6336
 total energy-change (2. order) : 0.4269913E+03  (-0.2436151E+04)
 number of electron      60.0000000 magnetization       7.8000000
 augmentation part       60.0000000 magnetization       7.8000000

 Free energy of the ion-electron system (eV)
  ---------------------------------------------------
  alpha Z        PSCENC =        55.61177563
  Ewald energy   TEWEN  =     -2145.34538293
  -Hartree energ DENC   =      -549.21292373
  -exchange      EXHF   =         0.00000000
  -V(xc)+E(xc)   XCENC  =       159.99192268
  PAW double counting   =      1143.61059536    -1211.88090093
  entropy T*S    EENTRO =         0.00000000
  eigenvalues    EBANDS =      -212.29345319
  atomic energy  EATOM  =      3186.50966167
  Solvation  Ediel_sol  =         0.00000000
  ---------------------------------------------------
  free energy    TOTEN  =       426.99129456 eV

  energy without entropy =      426.99129456  energy(sigma->0) =      426.99129456


--------------------------------------------------------------------------------------------------------




--------------------------------------- Iteration      1(   2)  ---------------------------------------


     EDDAV:  cpu time   40.8991: real time   40.8996
 BZINTS: Fermi energy:  3.070380; 60.000000 electrons
         Band energy:-632.804864;  BLOECHL correction:  0.000000
       DOS:  cpu time    0.0041: real time    0.0041
    --------------------------------------------
      LOOP:  cpu time   40.9032: real time   40.9037

 eigenvalue-minimisations  :  7608
 total energy-change (2. order) :-0.4205114E+03  (-0.3929477E+03)
 number of electron      60.0000000 magnetization       7.8000000
 augmentation part       60.0000000 magnetization       7.8000000

 Free energy of the ion-electron system (eV)
  ---------------------------------------------------
  alpha Z        PSCENC =        55.61177563
  Ewald energy   TEWEN  =     -2145.34538293
  -Hartree energ DENC   =      -549.21292373
  -exchange      EXHF   =         0.00000000
  -V(xc)+E(xc)   XCENC  =       159.99192268
  PAW double counting   =      1143.61059536    -1211.88090093
  entropy T*S    EENTRO =         0.00000000
  eigenvalues    EBANDS =      -632.80486429
  atomic energy  EATOM  =      3186.50966167
  Solvation  Ediel_sol  =         0.00000000
  ---------------------------------------------------
  free energy    TOTEN  =         6.47988346 eV

  energy without entropy =        6.47988346  energy(sigma->0) =        6.47988346


--------------------------------------------------------------------------------------------------------




--------------------------------------- Iteration      1(   3)  ---------------------------------------


     EDDAV:  cpu time   44.1414: real time   44.1418
 BZINTS: Fermi energy:  1.505876; 60.000000 electrons
         Band energy:-685.542714;  BLOECHL correction:  0.000000
       DOS:  cpu time    0.0032: real time    0.0032
    --------------------------------------------
      LOOP:  cpu time   44.1446: real time   44.1449

 eigenvalue-minimisations  :  9040
 total energy-change (2. order) :-0.5273785E+02  (-0.5239054E+02)
 number of electron      60.0000000 magnetization       7.8000000
 augmentation part       60.0000000 magnetization       7.8000000

 Free energy of the ion-electron system (eV)
  ---------------------------------------------------
  alpha Z        PSCENC =        55.61177563
  Ewald energy   TEWEN  =     -2145.34538293
  -Hartree energ DENC   =      -549.21292373
  -exchange      EXHF   =         0.00000000
  -V(xc)+E(xc)   XCENC  =       159.99192268
  PAW double counting   =      1143.61059536    -1211.88090093
  entropy T*S    EENTRO =         0.00000000
  eigenvalues    EBANDS =      -685.54271434
  atomic energy  EATOM  =      3186.50966167
  Solvation  Ediel_sol  =         0.00000000
  ---------------------------------------------------
  free energy    TOTEN  =       -46.25796659 eV

  energy without entropy =      -46.25796659  energy(sigma->0) =      -46.25796659


--------------------------------------------------------------------------------------------------------




--------------------------------------- Iteration      1(   4)  ---------------------------------------


     EDDAV:  cpu time   53.0734: real time   53.0736
 BZINTS: Fermi energy:  1.549847; 60.000000 electrons
         Band energy:-691.584469;  BLOECHL correction:  0.000000
       DOS:  cpu time    0.0031: real time    0.0031
    --------------------------------------------
      LOOP:  cpu time   53.0765: real time   53.0767

 eigenvalue-minimisations  : 11384
 total energy-change (2. order) :-0.6041755E+01  (-0.5988858E+01)
 number of electron      60.0000000 magnetization       7.8000000
 augmentation part       60.0000000 magnetization       7.8000000

 Free energy of the ion-electron system (eV)
  ---------------------------------------------------
  alpha Z        PSCENC =        55.61177563
  Ewald energy   TEWEN  =     -2145.34538293
  -Hartree energ DENC   =      -549.21292373
  -exchange      EXHF   =         0.00000000
  -V(xc)+E(xc)   XCENC  =       159.99192268
  PAW double counting   =      1143.61059536    -1211.88090093
  entropy T*S    EENTRO =         0.00000000
  eigenvalues    EBANDS =      -691.58446935
  atomic energy  EATOM  =      3186.50966167
  Solvation  Ediel_sol  =         0.00000000
  ---------------------------------------------------
  free energy    TOTEN  =       -52.29972160 eV

  energy without entropy =      -52.29972160  energy(sigma->0) =      -52.29972160


--------------------------------------------------------------------------------------------------------




--------------------------------------- Iteration      1(   5)  ---------------------------------------


     EDDAV:  cpu time   45.5846: real time   45.5849
 BZINTS: Fermi energy:  1.521596; 60.000000 electrons
         Band energy:-692.342981;  BLOECHL correction:  0.000000
       DOS:  cpu time    0.0036: real time    0.0036
    CHARGE:  cpu time    1.6173: real time    1.6173
    MIXING:  cpu time    0.0109: real time    0.0109
    --------------------------------------------
      LOOP:  cpu time   47.2165: real time   47.2168

 eigenvalue-minimisations  :  9848
 total energy-change (2. order) :-0.7585117E+00  (-0.7582637E+00)
 number of electron      60.0000005 magnetization       0.9454957
 augmentation part        0.2238840 magnetization       0.7903127

 Broyden mixing:
  rms(total) = 0.16042E+01    rms(broyden)= 0.16037E+01
  rms(prec ) = 0.20594E+01
  weight for this iteration     100.00

 Free energy of the ion-electron system (eV)
  ---------------------------------------------------
  alpha Z        PSCENC =        55.61177563
  Ewald energy   TEWEN  =     -2145.34538293
  -Hartree energ DENC   =      -549.21292373
  -exchange      EXHF   =         0.00000000
  -V(xc)+E(xc)   XCENC  =       159.99192268
  PAW double counting   =      1143.61059536    -1211.88090093
  entropy T*S    EENTRO =         0.00000000
  eigenvalues    EBANDS =      -692.34298105
  atomic energy  EATOM  =      3186.50966167
  Solvation  Ediel_sol  =         0.00000000
  ---------------------------------------------------
  free energy    TOTEN  =       -53.05823330 eV

  energy without entropy =      -53.05823330  energy(sigma->0) =      -53.05823330


--------------------------------------------------------------------------------------------------------




--------------------------------------- Iteration      1(   6)  ---------------------------------------


    POTLOK:  cpu time    0.5804: real time    0.5804
    SETDIJ:  cpu time    0.0186: real time    0.0186
    EDDIAG:  cpu time    6.2521: real time    6.2521
  RMM-DIIS:  cpu time   27.7029: real time   27.7031
    ORTHCH:  cpu time    0.1810: real time    0.1810
 BZINTS: Fermi energy:  1.623582; 60.000000 electrons
         Band energy:-679.138704;  BLOECHL correction:  0.000000
       DOS:  cpu time    0.0032: real time    0.0032
    CHARGE:  cpu time    1.6463: real time    1.6463
    MIXING:  cpu time    0.0127: real time    0.0127
    --------------------------------------------
      LOOP:  cpu time   36.3971: real time   36.3974

 eigenvalue-minimisations  :  6891
 total energy-change (2. order) :-0.2556362E+00  (-0.5331424E+00)
 number of electron      60.0000005 magnetization       0.2543126
 augmentation part        0.2903934 magnetization       0.1998394

 Broyden mixing:
  rms(total) = 0.74224E+00    rms(broyden)= 0.74220E+00
  rms(prec ) = 0.94520E+00
  weight for this iteration     100.00

 eigenvalues of (default mixing * dielectric matrix)
  average eigenvalue GAMMA=   0.6950
  0.6950

 Free energy of the ion-electron system (eV)
  ---------------------------------------------------
  alpha Z        PSCENC =        55.61177563
  Ewald energy   TEWEN  =     -2145.34538293
  -Hartree energ DENC   =      -561.86352448
  -exchange      EXHF   =         0.00000000
  -V(xc)+E(xc)   XCENC  =       160.78262764
  PAW double counting   =      1205.07141326    -1274.94173663
  entropy T*S    EENTRO =         0.00000000
  eigenvalues    EBANDS =      -679.13870369
  atomic energy  EATOM  =      3186.50966167
  Solvation  Ediel_sol  =         0.00000000
  ---------------------------------------------------
  free energy    TOTEN  =       -53.31386952 eV

  energy without entropy =      -53.31386952  energy(sigma->0) =      -53.31386952


--------------------------------------------------------------------------------------------------------




--------------------------------------- Iteration      1(   7)  ---------------------------------------


    POTLOK:  cpu time    0.5014: real time    0.5014
    SETDIJ:  cpu time    0.0229: real time    0.0229
    EDDIAG:  cpu time    6.2097: real time    6.2098
  RMM-DIIS:  cpu time   29.4019: real time   29.4020
    ORTHCH:  cpu time    0.1805: real time    0.1805
 BZINTS: Fermi energy:  1.657138; 60.000000 electrons
         Band energy:-674.480249;  BLOECHL correction:  0.000000
       DOS:  cpu time    0.0030: real time    0.0030
    CHARGE:  cpu time    1.6346: real time    1.6346
    MIXING:  cpu time    0.0147: real time    0.0147
    --------------------------------------------
      LOOP:  cpu time   37.9687: real time   37.9689

 eigenvalue-minimisations  :  7324
 total energy-change (2. order) :-0.3442240E+00  (-0.9529176E-01)
 number of electron      60.0000005 magnetization      -0.1304442
 augmentation part        0.3009339 magnetization      -0.1966981

 Broyden mixing:
  rms(total) = 0.28475E+00    rms(broyden)= 0.28474E+00
  rms(prec ) = 0.45858E+00
  weight for this iteration     100.00

 eigenvalues of (default mixing * dielectric matrix)
  average eigenvalue GAMMA=   0.9094
  1.1563  0.6624

 Free energy of the ion-electron system (eV)
  ---------------------------------------------------
  alpha Z        PSCENC =        55.61177563
  Ewald energy   TEWEN  =     -2145.34538293
  -Hartree energ DENC   =      -566.47177589
  -exchange      EXHF   =         0.00000000
  -V(xc)+E(xc)   XCENC  =       161.05571782
  PAW double counting   =      1225.94786507    -1296.48570575
  entropy T*S    EENTRO =         0.00000000
  eigenvalues    EBANDS =      -674.48024912
  atomic energy  EATOM  =      3186.50966167
  Solvation  Ediel_sol  =         0.00000000
  ---------------------------------------------------
  free energy    TOTEN  =       -53.65809349 eV

  energy without entropy =      -53.65809349  energy(sigma->0) =      -53.65809349


--------------------------------------------------------------------------------------------------------




--------------------------------------- Iteration      1(   8)  ---------------------------------------


    POTLOK:  cpu time    0.5156: real time    0.5157
    SETDIJ:  cpu time    0.0206: real time    0.0205
    EDDIAG:  cpu time    6.1822: real time    6.1823
  RMM-DIIS:  cpu time   32.8620: real time   32.8622
    ORTHCH:  cpu time    0.1757: real time    0.1757
 BZINTS: Fermi energy:  1.788788; 60.000000 electrons
         Band energy:-670.049420;  BLOECHL correction:  0.000000
       DOS:  cpu time    0.0030: real time    0.0030
    CHARGE:  cpu time    1.6142: real time    1.6142
    MIXING:  cpu time    0.0120: real time    0.0120
    --------------------------------------------
      LOOP:  cpu time   41.3852: real time   41.3855

 eigenvalue-minimisations  :  8182
 total energy-change (2. order) :-0.2555212E-02  (-0.4527553E-01)
 number of electron      60.0000005 magnetization      -0.0000710
 augmentation part        0.2964391 magnetization      -0.0364693

 Broyden mixing:
  rms(total) = 0.11097E+00    rms(broyden)= 0.11092E+00
  rms(prec ) = 0.19808E+00
  weight for this iteration     100.00

 eigenvalues of (default mixing * dielectric matrix)
  average eigenvalue GAMMA=   1.1220
  1.7816  0.9224  0.6619

 Free energy of the ion-electron system (eV)
  ---------------------------------------------------
  alpha Z        PSCENC =        55.61177563
  Ewald energy   TEWEN  =     -2145.34538293
  -Hartree energ DENC   =      -570.74954357
  -exchange      EXHF   =         0.00000000
  -V(xc)+E(xc)   XCENC  =       161.56060121
  PAW double counting   =      1244.70426178    -1315.90260256
  entropy T*S    EENTRO =         0.00000000
  eigenvalues    EBANDS =      -670.04941995
  atomic energy  EATOM  =      3186.50966167
  Solvation  Ediel_sol  =         0.00000000
  ---------------------------------------------------
  free energy    TOTEN  =       -53.66064870 eV

  energy without entropy =      -53.66064870  energy(sigma->0) =      -53.66064870


--------------------------------------------------------------------------------------------------------




--------------------------------------- Iteration      1(   9)  ---------------------------------------


    POTLOK:  cpu time    0.5088: real time    0.5088
    SETDIJ:  cpu time    0.0229: real time    0.0229
    EDDIAG:  cpu time    6.1774: real time    6.1775
  RMM-DIIS:  cpu time   33.2747: real time   33.2748
    ORTHCH:  cpu time    0.1951: real time    0.1951
 BZINTS: Fermi energy:  1.862845; 60.000000 electrons
         Band energy:-668.396651;  BLOECHL correction:  0.000000
       DOS:  cpu time    0.0026: real time    0.0026
    CHARGE:  cpu time    1.6606: real time    1.6606
    MIXING:  cpu time    0.0121: real time    0.0121
    --------------------------------------------
      LOOP:  cpu time   41.8543: real time   41.8546

 eigenvalue-minimisations  :  8213
 total energy-change (2. order) :-0.1221722E-01  (-0.1090087E-01)
 number of electron      60.0000005 magnetization       0.0172067
 augmentation part        0.2828099 magnetization      -0.0069819

 Broyden mixing:
  rms(total) = 0.45685E-01    rms(broyden)= 0.45655E-01
  rms(prec ) = 0.74009E-01
  weight for this iteration     100.00

 eigenvalues of (default mixing * dielectric matrix)
  average eigenvalue GAMMA=   1.2131
  2.2782  1.1313  0.6599  0.7829

 Free energy of the ion-electron system (eV)
  ---------------------------------------------------
  alpha Z        PSCENC =        55.61177563
  Ewald energy   TEWEN  =     -2145.34538293
  -Hartree energ DENC   =      -572.30259410
  -exchange      EXHF   =         0.00000000
  -V(xc)+E(xc)   XCENC  =       161.81048228
  PAW double counting   =      1250.70489251    -1322.26505047
  entropy T*S    EENTRO =         0.00000000
  eigenvalues    EBANDS =      -668.39665054
  atomic energy  EATOM  =      3186.50966167
  Solvation  Ediel_sol  =         0.00000000
  ---------------------------------------------------
  free energy    TOTEN  =       -53.67286592 eV

  energy without entropy =      -53.67286592  energy(sigma->0) =      -53.67286592


--------------------------------------------------------------------------------------------------------




--------------------------------------- Iteration      1(  10)  ---------------------------------------


    POTLOK:  cpu time    0.5170: real time    0.5171
    SETDIJ:  cpu time    0.0184: real time    0.0183
    EDDIAG:  cpu time    6.1802: real time    6.1802
  RMM-DIIS:  cpu time   35.2196: real time   35.2199
    ORTHCH:  cpu time    0.1860: real time    0.1860
 BZINTS: Fermi energy:  1.880495; 60.000000 electrons
         Band energy:-667.934544;  BLOECHL correction:  0.000000
       DOS:  cpu time    0.0036: real time    0.0036
    CHARGE:  cpu time    1.6023: real time    1.6023
    MIXING:  cpu time    0.0124: real time    0.0124
    --------------------------------------------
      LOOP:  cpu time   43.7395: real time   43.7398

 eigenvalue-minimisations  :  8682
 total energy-change (2. order) :-0.9568217E-02  (-0.4359698E-02)
 number of electron      60.0000005 magnetization       0.0023875
 augmentation part        0.2712283 magnetization      -0.0081822

 Broyden mixing:
  rms(total) = 0.19939E-01    rms(broyden)= 0.19882E-01
  rms(prec ) = 0.30229E-01
  weight for this iteration     100.00

 eigenvalues of (default mixing * dielectric matrix)
  average eigenvalue GAMMA=   1.2379
  2.4680  1.4067  0.9476  0.6971  0.6700

 Free energy of the ion-electron system (eV)
  ---------------------------------------------------
  alpha Z        PSCENC =        55.61177563
  Ewald energy   TEWEN  =     -2145.34538293
  -Hartree energ DENC   =      -572.75808592
  -exchange      EXHF   =         0.00000000
  -V(xc)+E(xc)   XCENC  =       161.89196585
  PAW double counting   =      1251.46024044    -1323.11806447
  entropy T*S    EENTRO =         0.00000000
  eigenvalues    EBANDS =      -667.93454441
  atomic energy  EATOM  =      3186.50966167
  Solvation  Ediel_sol  =         0.00000000
  ---------------------------------------------------
  free energy    TOTEN  =       -53.68243414 eV

  energy without entropy =      -53.68243414  energy(sigma->0) =      -53.68243414


--------------------------------------------------------------------------------------------------------




--------------------------------------- Iteration      1(  11)  ---------------------------------------


    POTLOK:  cpu time    0.5049: real time    0.5050
    SETDIJ:  cpu time    0.0182: real time    0.0182
    EDDIAG:  cpu time    6.1800: real time    6.1801
  RMM-DIIS:  cpu time   31.2021: real time   31.2084
    ORTHCH:  cpu time    0.1899: real time    0.1899
 BZINTS: Fermi energy:  1.880312; 60.000000 electrons
         Band energy:-667.705755;  BLOECHL correction:  0.000000
       DOS:  cpu time    0.0037: real time    0.0037
    CHARGE:  cpu time    1.6915: real time    1.6915
    MIXING:  cpu time    0.0141: real time    0.0141
    --------------------------------------------
      LOOP:  cpu time   39.8045: real time   39.8110

 eigenvalue-minimisations  :  7466
 total energy-change (2. order) :-0.3000158E-02  (-0.1716822E-02)
 number of electron      60.0000005 magnetization      -0.0003565
 augmentation part        0.2645969 magnetization      -0.0089855

 Broyden mixing:
  rms(total) = 0.10847E-01    rms(broyden)= 0.10812E-01
  rms(prec ) = 0.16146E-01
  weight for this iteration     100.00

 eigenvalues of (default mixing * dielectric matrix)
  average eigenvalue GAMMA=   1.2800
  2.3444  1.9911  1.0440  0.9537  0.6866  0.6602

 Free energy of the ion-electron system (eV)
  ---------------------------------------------------
  alpha Z        PSCENC =        55.61177563
  Ewald energy   TEWEN  =     -2145.34538293
  -Hartree energ DENC   =      -573.01856279
  -exchange      EXHF   =         0.00000000
  -V(xc)+E(xc)   XCENC  =       161.92320942
  PAW double counting   =      1251.29477731    -1322.95515811
  entropy T*S    EENTRO =         0.00000000
  eigenvalues    EBANDS =      -667.70575451
  atomic energy  EATOM  =      3186.50966167
  Solvation  Ediel_sol  =         0.00000000
  ---------------------------------------------------
  free energy    TOTEN  =       -53.68543430 eV

  energy without entropy =      -53.68543430  energy(sigma->0) =      -53.68543430


--------------------------------------------------------------------------------------------------------




--------------------------------------- Iteration      1(  12)  ---------------------------------------


    POTLOK:  cpu time    0.5064: real time    0.5064
    SETDIJ:  cpu time    0.0224: real time    0.0224
    EDDIAG:  cpu time    6.1615: real time    6.1615
  RMM-DIIS:  cpu time   28.7570: real time   28.7571
    ORTHCH:  cpu time    0.1883: real time    0.1883
 BZINTS: Fermi energy:  1.879484; 60.000000 electrons
         Band energy:-667.514917;  BLOECHL correction:  0.000000
       DOS:  cpu time    0.0025: real time    0.0025
    CHARGE:  cpu time    1.6067: real time    1.6067
    MIXING:  cpu time    0.0118: real time    0.0118
    --------------------------------------------
      LOOP:  cpu time   37.2567: real time   37.2569

 eigenvalue-minimisations  :  6938
 total energy-change (2. order) :-0.1228746E-02  (-0.8347999E-03)
 number of electron      60.0000005 magnetization      -0.0000352
 augmentation part        0.2605404 magnetization      -0.0060706

 Broyden mixing:
  rms(total) = 0.60485E-02    rms(broyden)= 0.60170E-02
  rms(prec ) = 0.85489E-02
  weight for this iteration     100.00

 eigenvalues of (default mixing * dielectric matrix)
  average eigenvalue GAMMA=   1.3738
  2.6613  2.6613  1.2109  0.9730  0.7825  0.6672  0.6604

 Free energy of the ion-electron system (eV)
  ---------------------------------------------------
  alpha Z        PSCENC =        55.61177563
  Ewald energy   TEWEN  =     -2145.34538293
  -Hartree energ DENC   =      -573.26532677
  -exchange      EXHF   =         0.00000000
  -V(xc)+E(xc)   XCENC  =       161.94242041
  PAW double counting   =      1251.06727071    -1322.69216496
  entropy T*S    EENTRO =         0.00000000
  eigenvalues    EBANDS =      -667.51491681
  atomic energy  EATOM  =      3186.50966167
  Solvation  Ediel_sol  =         0.00000000
  ---------------------------------------------------
  free energy    TOTEN  =       -53.68666304 eV

  energy without entropy =      -53.68666304  energy(sigma->0) =      -53.68666304


--------------------------------------------------------------------------------------------------------




--------------------------------------- Iteration      1(  13)  ---------------------------------------


    POTLOK:  cpu time    0.5138: real time    0.5138
    SETDIJ:  cpu time    0.0180: real time    0.0180
    EDDIAG:  cpu time    6.1058: real time    6.1059
  RMM-DIIS:  cpu time   23.1092: real time   23.1093
    ORTHCH:  cpu time    0.1717: real time    0.1717
 BZINTS: Fermi energy:  1.878461; 60.000000 electrons
         Band energy:-667.361052;  BLOECHL correction:  0.000000
       DOS:  cpu time    0.0035: real time    0.0035
    --------------------------------------------
      LOOP:  cpu time   29.9220: real time   29.9221

 eigenvalue-minimisations  :  5436
 total energy-change (2. order) :-0.3012622E-03  (-0.2569663E-03)
 number of electron      60.0000005 magnetization      -0.0000352
 augmentation part        0.2605404 magnetization      -0.0060706

 Free energy of the ion-electron system (eV)
  ---------------------------------------------------
  alpha Z        PSCENC =        55.61177563
  Ewald energy   TEWEN  =     -2145.34538293
  -Hartree energ DENC   =      -573.47434829
  -exchange      EXHF   =         0.00000000
  -V(xc)+E(xc)   XCENC  =       161.95790669
  PAW double counting   =      1251.04304082    -1322.62856637
  entropy T*S    EENTRO =         0.00000000
  eigenvalues    EBANDS =      -667.36105153
  atomic energy  EATOM  =      3186.50966167
  Solvation  Ediel_sol  =         0.00000000
  ---------------------------------------------------
  free energy    TOTEN  =       -53.68696431 eV

  energy without entropy =      -53.68696431  energy(sigma->0) =      -53.68696431


--------------------------------------------------------------------------------------------------------




 average (electrostatic) potential at core
  the test charge radii are     0.7079  0.9587  0.9698  0.9406
  (the norm of the test charge is              1.0000)
       1 -61.7312       2 -62.0476       3 -61.6599       4 -61.9865       5 -62.0501
       6 -62.0467       7 -88.0599       8 -86.8323       9 -88.5118      10 -88.5979
      11 -88.5722      12 -88.4845      13 -93.3881
 
 
 
 E-fermi :   1.8785     XC(G=0):  -8.4149     alpha+bet : -9.7251


 spin component 1

 k-point     1 :       0.0000    0.0000    0.0000
  band No.  band energies     occupation 
      1     -42.9898      1.00000
      2     -42.9726      1.00000
      3     -42.9423      1.00000
      4     -42.8959      1.00000
      5     -42.6491      1.00000
      6     -42.5778      1.00000
      7     -13.2382      1.00000
      8     -12.8740      1.00000
      9     -10.1635      1.00000
     10     -10.1221      1.00000
     11     -10.0804      1.00000
     12      -7.9908      1.00000
     13      -6.3902      1.00000
     14      -2.9405      1.00000
     15      -2.8734      1.00000
     16      -2.8049      1.00000
     17      -1.4966      1.00000
     18      -1.4673      1.00000
     19      -1.4184      1.00000
     20      -0.5912      1.00000
     21      -0.5539      1.00000
     22       0.2094      1.00000
     23       0.2807      1.00000
     24       0.3033      1.00000
     25       1.2737      1.00000
     26       1.3978      1.00000
     27       1.5043      1.00000
     28       1.5639      1.00000
     29       1.6650      1.00000
     30       1.7890      1.00000
     31       3.8413      0.00000
     32       5.4409      0.00000
     33       5.5986      0.00000
     34       5.7730      0.00000
     35       6.1563      0.00000
     36       7.7047      0.00000
     37       7.9426      0.00000
     38       8.1990      0.00000
     39       8.4541      0.00000
     40       8.8572      0.00000
     41       9.2683      0.00000
     42       9.4092      0.00000
     43       9.5162      0.00000
     44       9.7958      0.00000

 k-point     2 :       0.2500    0.0000    0.0000
  band No.  band energies     occupation 
      1     -42.9897      1.00000
      2     -42.9727      1.00000
      3     -42.9423      1.00000
      4     -42.8959      1.00000
      5     -42.6491      1.00000
      6     -42.5778      1.00000
      7     -13.2096      1.00000
      8     -12.8814      1.00000
      9     -10.2517      1.00000
     10     -10.1332      1.00000
     11     -10.1082      1.00000
     12      -7.9960      1.00000
     13      -6.0684      1.00000
     14      -3.0774      1.00000
     15      -2.7301      1.00000
     16      -2.7167      1.00000
     17      -1.5722      1.00000
     18      -1.4881      1.00000
     19      -1.4419      1.00000
     20      -0.4496      1.00000
     21      -0.4109      1.00000
     22      -0.0755      1.00000
     23       0.1197      1.00000
     24       0.1861      1.00000
     25       1.0188      1.00000
     26       1.1958      1.00000
     27       1.2722      1.00000
     28       1.3543      1.00000
     29       1.5588      1.00000
     30       1.7012      1.00000
     31       4.6269      0.00000
     32       5.6572      0.00000
     33       6.2491      0.00000
     34       6.3044      0.00000
     35       6.8070      0.00000
     36       7.2813      0.00000
     37       7.9345      0.00000
     38       8.3193      0.00000
     39       8.4965      0.00000
     40       8.6598      0.00000
     41       9.0168      0.00000
     42       9.1663      0.00000
     43       9.6045      0.00000
     44       9.8756      0.00000

 k-point     3 :       0.5000    0.0000    0.0000
  band No.  band energies     occupation 
      1     -42.9896      1.00000
      2     -42.9727      1.00000
      3     -42.9423      1.00000
      4     -42.8959      1.00000
      5     -42.6491      1.00000
      6     -42.5778      1.00000
      7     -13.1818      1.00000
      8     -12.8861      1.00000
      9     -10.3591      1.00000
     10     -10.1396      1.00000
     11     -10.1163      1.00000
     12      -8.0017      1.00000
     13      -5.6821      1.00000
     14      -3.3808      1.00000
     15      -2.5502      1.00000
     16      -2.5295      1.00000
     17      -1.5669      1.00000
     18      -1.5510      1.00000
     19      -1.4432      1.00000
     20      -0.6409      1.00000
     21      -0.2385      1.00000
     22      -0.1414      1.00000
     23      -0.0316      1.00000
     24       0.0360      1.00000
     25       0.7377      1.00000
     26       1.0335      1.00000
     27       1.1244      1.00000
     28       1.2079      1.00000
     29       1.5005      1.00000
     30       1.6517      1.00000
     31       5.6258      0.00000
     32       5.6898      0.00000
     33       6.8011      0.00000
     34       6.9417      0.00000
     35       7.2215      0.00000
     36       7.4525      0.00000
     37       7.7612      0.00000
     38       7.8647      0.00000
     39       8.2910      0.00000
     40       8.4630      0.00000
     41       8.7978      0.00000
     42       9.2610      0.00000
     43       9.4527      0.00000
     44       9.7926      0.00000

 k-point     4 :       0.0000    0.2500   -0.0000
  band No.  band energies     occupation 
      1     -42.9897      1.00000
      2     -42.9727      1.00000
      3     -42.9423      1.00000
      4     -42.8959      1.00000
      5     -42.6491      1.00000
      6     -42.5778      1.00000
      7     -13.2160      1.00000
      8     -12.8809      1.00000
      9     -10.2001      1.00000
     10     -10.1629      1.00000
     11     -10.0987      1.00000
     12      -7.9950      1.00000
     13      -6.1514      1.00000
     14      -2.9271      1.00000
     15      -2.8611      1.00000
     16      -2.7708      1.00000
     17      -1.5562      1.00000
     18      -1.5009      1.00000
     19      -1.4519      1.00000
     20      -0.4582      1.00000
     21      -0.4157      1.00000
     22      -0.0380      1.00000
     23       0.1807      1.00000
     24       0.2691      1.00000
     25       1.0803      1.00000
     26       1.1997      1.00000
     27       1.3059      1.00000
     28       1.3795      1.00000
     29       1.5737      1.00000
     30       1.7967      1.00000
     31       4.3765      0.00000
     32       5.8459      0.00000
     33       5.9139      0.00000
     34       6.0589      0.00000
     35       6.6945      0.00000
     36       7.3638      0.00000
     37       7.8491      0.00000
     38       8.1787      0.00000
     39       8.6370      0.00000
     40       8.8479      0.00000
     41       9.0549      0.00000
     42       9.1627      0.00000
     43       9.4565      0.00000
     44      10.0119      0.00000

 k-point     5 :       0.2500    0.2500   -0.0000
  band No.  band energies     occupation 
      1     -42.9897      1.00000
      2     -42.9727      1.00000
      3     -42.9423      1.00000
      4     -42.8959      1.00000
      5     -42.6491      1.00000
      6     -42.5778      1.00000
      7     -13.1870      1.00000
      8     -12.8875      1.00000
      9     -10.3223      1.00000
     10     -10.1524      1.00000
     11     -10.1097      1.00000
     12      -8.0001      1.00000
     13      -5.7872      1.00000
     14      -3.2612      1.00000
     15      -2.6439      1.00000
     16      -2.6032      1.00000
     17      -1.5858      1.00000
     18      -1.5310      1.00000
     19      -1.4463      1.00000
     20      -0.5844      1.00000
     21      -0.2350      1.00000
     22      -0.1301      1.00000
     23       0.0471      1.00000
     24       0.1974      1.00000
     25       0.7665      1.00000
     26       0.9095      1.00000
     27       1.1633      1.00000
     28       1.2067      1.00000
     29       1.5212      1.00000
     30       1.7488      1.00000
     31       5.2263      0.00000
     32       5.9854      0.00000
     33       6.3468      0.00000
     34       6.6399      0.00000
     35       7.2216      0.00000
     36       7.4503      0.00000
     37       7.8363      0.00000
     38       8.1655      0.00000
     39       8.3800      0.00000
     40       8.6821      0.00000
     41       8.8820      0.00000
     42       9.1158      0.00000
     43       9.2201      0.00000
     44       9.5546      0.00000

 k-point     6 :       0.5000    0.2500   -0.0000
  band No.  band energies     occupation 
      1     -42.9897      1.00000
      2     -42.9727      1.00000
      3     -42.9423      1.00000
      4     -42.8959      1.00000
      5     -42.6491      1.00000
      6     -42.5778      1.00000
      7     -13.1868      1.00000
      8     -12.8875      1.00000
      9     -10.3438      1.00000
     10     -10.1356      1.00000
     11     -10.1030      1.00000
     12      -7.9995      1.00000
     13      -5.7979      1.00000
     14      -3.2824      1.00000
     15      -2.6178      1.00000
     16      -2.5626      1.00000
     17      -1.5918      1.00000
     18      -1.5705      1.00000
     19      -1.3880      1.00000
     20      -0.5733      1.00000
     21      -0.2446      1.00000
     22      -0.1719      1.00000
     23      -0.0186      1.00000
     24       0.1646      1.00000
     25       0.7539      1.00000
     26       0.9188      1.00000
     27       1.2433      1.00000
     28       1.3238      1.00000
     29       1.4782      1.00000
     30       1.6827      1.00000
     31       5.1564      0.00000
     32       5.8978      0.00000
     33       6.4007      0.00000
     34       6.7252      0.00000
     35       7.2849      0.00000
     36       7.4298      0.00000
     37       7.8108      0.00000
     38       8.0746      0.00000
     39       8.3561      0.00000
     40       8.5675      0.00000
     41       8.8762      0.00000
     42       9.2169      0.00000
     43       9.3576      0.00000
     44       9.7311      0.00000

 k-point     7 :      -0.2500    0.2500   -0.0000
  band No.  band energies     occupation 
      1     -42.9897      1.00000
      2     -42.9726      1.00000
      3     -42.9423      1.00000
      4     -42.8959      1.00000
      5     -42.6491      1.00000
      6     -42.5778      1.00000
      7     -13.2158      1.00000
      8     -12.8809      1.00000
      9     -10.2476      1.00000
     10     -10.1288      1.00000
     11     -10.0832      1.00000
     12      -7.9946      1.00000
     13      -6.1598      1.00000
     14      -3.0001      1.00000
     15      -2.8021      1.00000
     16      -2.7287      1.00000
     17      -1.5598      1.00000
     18      -1.5378      1.00000
     19      -1.3982      1.00000
     20      -0.4752      1.00000
     21      -0.4039      1.00000
     22      -0.0606      1.00000
     23       0.1827      1.00000
     24       0.2251      1.00000
     25       1.0153      1.00000
     26       1.1662      1.00000
     27       1.4096      1.00000
     28       1.4699      1.00000
     29       1.5858      1.00000
     30       1.7268      1.00000
     31       4.3073      0.00000
     32       5.7338      0.00000
     33       5.9592      0.00000
     34       6.1424      0.00000
     35       6.6600      0.00000
     36       7.5398      0.00000
     37       7.9617      0.00000
     38       8.2037      0.00000
     39       8.4866      0.00000
     40       8.6361      0.00000
     41       8.9775      0.00000
     42       9.0953      0.00000
     43       9.3643      0.00000
     44       9.6049      0.00000

 k-point     8 :       0.0000    0.5000   -0.0000
  band No.  band energies     occupation 
      1     -42.9897      1.00000
      2     -42.9727      1.00000
      3     -42.9423      1.00000
      4     -42.8959      1.00000
      5     -42.6491      1.00000
      6     -42.5778      1.00000
      7     -13.1922      1.00000
      8     -12.8890      1.00000
      9     -10.2838      1.00000
     10     -10.1651      1.00000
     11     -10.1035      1.00000
     12      -7.9995      1.00000
     13      -5.8886      1.00000
     14      -3.0681      1.00000
     15      -2.7755      1.00000
     16      -2.7024      1.00000
     17      -1.6039      1.00000
     18      -1.5631      1.00000
     19      -1.3885      1.00000
     20      -0.4396      1.00000
     21      -0.1945      1.00000
     22      -0.1597      1.00000
     23      -0.1003      1.00000
     24       0.1943      1.00000
     25       0.8868      1.00000
     26       1.0444      1.00000
     27       1.1065      1.00000
     28       1.3693      1.00000
     29       1.5413      1.00000
     30       1.8172      1.00000
     31       4.7227      0.00000
     32       5.9481      0.00000
     33       6.2838      0.00000
     34       6.3602      0.00000
     35       7.3368      0.00000
     36       7.3825      0.00000
     37       7.8761      0.00000
     38       8.0080      0.00000
     39       8.5513      0.00000
     40       8.7036      0.00000
     41       9.0259      0.00000
     42       9.1280      0.00000
     43       9.2094      0.00000
     44       9.9839      0.00000

 k-point     9 :       0.2500    0.5000   -0.0000
  band No.  band energies     occupation 
      1     -42.9897      1.00000
      2     -42.9727      1.00000
      3     -42.9423      1.00000
      4     -42.8959      1.00000
      5     -42.6491      1.00000
      6     -42.5778      1.00000
      7     -13.1936      1.00000
      8     -12.8868      1.00000
      9     -10.3094      1.00000
     10     -10.1457      1.00000
     11     -10.0975      1.00000
     12      -7.9984      1.00000
     13      -5.8921      1.00000
     14      -3.1787      1.00000
     15      -2.7134      1.00000
     16      -2.6064      1.00000
     17      -1.6315      1.00000
     18      -1.4897      1.00000
     19      -1.4389      1.00000
     20      -0.4994      1.00000
     21      -0.2798      1.00000
     22      -0.1634      1.00000
     23       0.0782      1.00000
     24       0.2330      1.00000
     25       0.7497      1.00000
     26       0.9769      1.00000
     27       1.2366      1.00000
     28       1.3301      1.00000
     29       1.5172      1.00000
     30       1.7372      1.00000
     31       4.9603      0.00000
     32       5.8478      0.00000
     33       6.4261      0.00000
     34       6.4645      0.00000
     35       7.0279      0.00000
     36       7.5390      0.00000
     37       7.7701      0.00000
     38       8.1159      0.00000
     39       8.4616      0.00000
     40       8.6099      0.00000
     41       8.8049      0.00000
     42       9.1690      0.00000
     43       9.4310      0.00000
     44       9.6638      0.00000

 k-point    10 :       0.5000    0.5000   -0.0000
  band No.  band energies     occupation 
      1     -42.9897      1.00000
      2     -42.9726      1.00000
      3     -42.9423      1.00000
      4     -42.8959      1.00000
      5     -42.6491      1.00000
      6     -42.5778      1.00000
      7     -13.1918      1.00000
      8     -12.8889      1.00000
      9     -10.3314      1.00000
     10     -10.1314      1.00000
     11     -10.0858      1.00000
     12      -7.9988      1.00000
     13      -5.9074      1.00000
     14      -3.1195      1.00000
     15      -2.7110      1.00000
     16      -2.6477      1.00000
     17      -1.6119      1.00000
     18      -1.5952      1.00000
     19      -1.3271      1.00000
     20      -0.4660      1.00000
     21      -0.2413      1.00000
     22      -0.1805      1.00000
     23      -0.0304      1.00000
     24       0.0798      1.00000
     25       0.8142      1.00000
[...]
     21      -0.2928      1.00000
     22      -0.1828      1.00000
     23      -0.0891      1.00000
     24       0.0082      1.00000
     25       0.4528      1.00000
     26       0.6775      1.00000
     27       0.8371      1.00000
     28       0.9499      1.00000
     29       1.1412      1.00000
     30       1.1996      1.00000
     31       4.9581      0.00000
     32       5.7262      0.00000
     33       6.1031      0.00000
     34       6.4975      0.00000
     35       6.9282      0.00000
     36       7.4064      0.00000
     37       7.7086      0.00000
     38       8.0307      0.00000
     39       8.3077      0.00000
     40       8.5364      0.00000
     41       8.6493      0.00000
     42       8.9097      0.00000
     43       9.0889      0.00000
     44       9.3331      0.00000

 k-point    33 :      -0.2500    0.2500    0.5000
  band No.  band energies     occupation 
      1     -43.0530      1.00000
      2     -43.0000      1.00000
      3     -42.9378      1.00000
      4     -42.8056      1.00000
      5     -42.7735      1.00000
      6     -42.7708      1.00000
      7     -13.2637      1.00000
      8     -12.4775      1.00000
      9     -10.4571      1.00000
     10     -10.2830      1.00000
     11     -10.2206      1.00000
     12      -8.6454      1.00000
     13      -5.9435      1.00000
     14      -3.3759      1.00000
     15      -2.7862      1.00000
     16      -2.6930      1.00000
     17      -1.3040      1.00000
     18      -1.2276      1.00000
     19      -1.1522      1.00000
     20      -0.7075      1.00000
     21      -0.3093      1.00000
     22      -0.1769      1.00000
     23      -0.0757      1.00000
     24       0.0390      1.00000
     25       0.4636      1.00000
     26       0.6325      1.00000
     27       0.7987      1.00000
     28       0.9507      1.00000
     29       1.1383      1.00000
     30       1.1551      1.00000
     31       4.9992      0.00000
     32       5.7120      0.00000
     33       6.1980      0.00000
     34       6.5031      0.00000
     35       7.0590      0.00000
     36       7.2720      0.00000
     37       7.6851      0.00000
     38       7.9495      0.00000
     39       8.1612      0.00000
     40       8.5099      0.00000
     41       8.6656      0.00000
     42       8.9272      0.00000
     43       9.0455      0.00000
     44       9.3904      0.00000

 k-point    34 :      -0.0000    0.5000    0.5000
  band No.  band energies     occupation 
      1     -43.0530      1.00000
      2     -43.0000      1.00000
      3     -42.9378      1.00000
      4     -42.8056      1.00000
      5     -42.7735      1.00000
      6     -42.7707      1.00000
      7     -13.2604      1.00000
      8     -12.4777      1.00000
      9     -10.4507      1.00000
     10     -10.2986      1.00000
     11     -10.2307      1.00000
     12      -8.6481      1.00000
     13      -5.8747      1.00000
     14      -3.4323      1.00000
     15      -2.7701      1.00000
     16      -2.6044      1.00000
     17      -1.3250      1.00000
     18      -1.2690      1.00000
     19      -1.1228      1.00000
     20      -0.6833      1.00000
     21      -0.3654      1.00000
     22      -0.1685      1.00000
     23      -0.1327      1.00000
     24      -0.0419      1.00000
     25       0.5567      1.00000
     26       0.6443      1.00000
     27       0.7268      1.00000
     28       0.9522      1.00000
     29       1.0112      1.00000
     30       1.1500      1.00000
     31       5.3913      0.00000
     32       5.4325      0.00000
     33       6.5992      0.00000
     34       6.7120      0.00000
     35       6.9788      0.00000
     36       7.2228      0.00000
     37       7.6453      0.00000
     38       7.8643      0.00000
     39       8.0956      0.00000
     40       8.3545      0.00000
     41       8.7424      0.00000
     42       9.0263      0.00000
     43       9.2154      0.00000
     44       9.2985      0.00000

 k-point    35 :       0.2500    0.5000    0.5000
  band No.  band energies     occupation 
      1     -43.0530      1.00000
      2     -43.0000      1.00000
      3     -42.9379      1.00000
      4     -42.8056      1.00000
      5     -42.7735      1.00000
      6     -42.7708      1.00000
      7     -13.2598      1.00000
      8     -12.4782      1.00000
      9     -10.4707      1.00000
     10     -10.2794      1.00000
     11     -10.2291      1.00000
     12      -8.6458      1.00000
     13      -5.8762      1.00000
     14      -3.4599      1.00000
     15      -2.7500      1.00000
     16      -2.6158      1.00000
     17      -1.3045      1.00000
     18      -1.2265      1.00000
     19      -1.1444      1.00000
     20      -0.8416      1.00000
     21      -0.2732      1.00000
     22      -0.1681      1.00000
     23      -0.0459      1.00000
     24       0.0588      1.00000
     25       0.5117      1.00000
     26       0.6090      1.00000
     27       0.7198      1.00000
     28       0.9057      1.00000
     29       1.0380      1.00000
     30       1.0835      1.00000
     31       5.4903      0.00000
     32       5.7181      0.00000
     33       6.1662      0.00000
     34       6.4779      0.00000
     35       7.1766      0.00000
     36       7.3841      0.00000
     37       7.6011      0.00000
     38       7.9070      0.00000
     39       8.1417      0.00000
     40       8.5192      0.00000
     41       8.7161      0.00000
     42       8.9048      0.00000
     43       9.0909      0.00000
     44       9.3144      0.00000

 k-point    36 :       0.5000    0.5000    0.5000
  band No.  band energies     occupation 
      1     -43.0530      1.00000
      2     -43.0000      1.00000
      3     -42.9378      1.00000
      4     -42.8056      1.00000
      5     -42.7735      1.00000
      6     -42.7708      1.00000
      7     -13.2603      1.00000
      8     -12.4761      1.00000
      9     -10.4909      1.00000
     10     -10.2661      1.00000
     11     -10.2234      1.00000
     12      -8.6457      1.00000
     13      -5.8726      1.00000
     14      -3.4836      1.00000
     15      -2.6904      1.00000
     16      -2.6473      1.00000
     17      -1.2828      1.00000
     18      -1.2562      1.00000
     19      -1.1082      1.00000
     20      -0.8090      1.00000
     21      -0.3546      1.00000
     22      -0.1589      1.00000
     23      -0.0925      1.00000
     24      -0.0629      1.00000
     25       0.4383      1.00000
     26       0.6641      1.00000
     27       0.7971      1.00000
     28       0.9130      1.00000
     29       1.1262      1.00000
     30       1.1408      1.00000
     31       5.4294      0.00000
     32       5.4465      0.00000
     33       6.6429      0.00000
     34       6.6673      0.00000
     35       6.9586      0.00000
     36       7.2404      0.00000
     37       7.6936      0.00000
     38       7.9284      0.00000
     39       8.0255      0.00000
     40       8.1502      0.00000
     41       8.8671      0.00000
     42       8.9706      0.00000
     43       9.1514      0.00000
     44       9.4977      0.00000


--------------------------------------------------------------------------------------------------------


 soft charge-density along one line, spin component           1
         0         1         2         3         4         5         6         7         8         9
 total charge-density along one line
 
 soft charge-density along one line, spin component           2
         0         1         2         3         4         5         6         7         8         9
 total charge-density along one line
 
 pseudopotential strength for first ion, spin component:           1
-39.213 -18.379  -0.001  -0.002  -0.002
-18.379 -15.282  -0.005  -0.011  -0.012
 -0.001  -0.005   0.171  -0.000  -0.000
 -0.002  -0.011  -0.000   0.172   0.000
 -0.002  -0.012  -0.000   0.000   0.172
 pseudopotential strength for first ion, spin component:           2
-39.214 -18.379  -0.001  -0.002  -0.002
-18.379 -15.282  -0.005  -0.011  -0.012
 -0.001  -0.005   0.171  -0.000  -0.000
 -0.002  -0.011  -0.000   0.172   0.000
 -0.002  -0.012  -0.000   0.000   0.172
 total augmentation occupancy for first ion, spin component:           1
  2.254  -0.469   0.015   0.025   0.025
 -0.469   0.866  -0.022  -0.033  -0.032
  0.015  -0.022   0.032   0.002   0.002
  0.025  -0.033   0.002   0.015  -0.004
  0.025  -0.032   0.002  -0.004   0.015
 total augmentation occupancy for first ion, spin component:           2
  0.000  -0.000   0.000  -0.000  -0.000
 -0.000   0.000  -0.000   0.000   0.000
  0.000  -0.000   0.000   0.000  -0.000
 -0.000   0.000   0.000   0.000   0.000
 -0.000   0.000  -0.000   0.000   0.000


------------------------ aborting loop because EDIFF is reached ----------------------------------------


 


 total charge     
 
# of ion       s       p       d       tot
------------------------------------------
    1        2.015   0.044   0.000   2.059
    2        2.020   0.053   0.000   2.073
    3        2.012   0.040   0.000   2.052
    4        2.017   0.049   0.000   2.066
    5        2.020   0.053   0.000   2.074
    6        2.020   0.053   0.000   2.073
    7        0.971   1.380   0.000   2.351
    8        1.303   2.508   0.000   3.810
    9        1.336   2.450   0.000   3.786
   10        1.333   2.454   0.000   3.787
   11        1.334   2.441   0.000   3.775
   12        1.337   2.436   0.000   3.773
   13        1.588   3.550   0.000   5.139
--------------------------------------------------
tot         21.306  17.513   0.000  38.819
 


 magnetization (x)
 
# of ion       s       p       d       tot
------------------------------------------
    1       -0.000  -0.000   0.000  -0.000
    2       -0.000  -0.000   0.000  -0.000
    3       -0.000  -0.000   0.000  -0.000
    4       -0.000  -0.000   0.000  -0.000
    5       -0.000  -0.000   0.000  -0.000
    6       -0.000  -0.000   0.000  -0.000
    7        0.000   0.000   0.000   0.000
    8       -0.000   0.000   0.000   0.000
    9       -0.000   0.000   0.000  -0.000
   10       -0.000  -0.000   0.000  -0.000
   11       -0.000   0.000   0.000   0.000
   12       -0.000  -0.000   0.000  -0.000
   13       -0.000   0.000   0.000   0.000
--------------------------------------------------
tot         -0.000  -0.000   0.000  -0.000
 
    CHARGE:  cpu time    1.5856: real time    1.5856
    FORLOC:  cpu time    0.0346: real time    0.0346
    FORNL :  cpu time    9.3001: real time    9.3002
    STRESS:  cpu time   27.9071: real time   27.9071
    FORCOR:  cpu time    0.4788: real time    0.4789
    FORHAR:  cpu time    0.0697: real time    0.0697
    MIXING:  cpu time    0.0103: real time    0.0103
    OFIELD:  cpu time    0.0000: real time    0.0000

  FORCE on cell =-STRESS in cart. coord.  units (eV):
  Direction    XX          YY          ZZ          XY          YZ          ZX
  --------------------------------------------------------------------------------------
  Alpha Z    54.11272    54.11272    54.11272
  Ewald    -680.97279  -728.32845  -705.00737    16.45718    -1.02188     3.42301
  Hartree   209.66003   185.84477   201.26885     4.76015     0.17103    -3.27443
  E(xc)    -231.50318  -231.56382  -231.53811     0.02044    -0.00521     0.00185
  Local    -559.80249  -491.57638  -529.58947   -19.29401     0.60777     0.67251
  n-local   409.95452   409.82720   409.79456     0.33869    -0.07167     0.26426
  augment    -6.99933    -7.18510    -7.11591     0.08861    -0.01518     0.02661
  Kinetic   805.84492   809.40208   808.53564    -2.36193     0.26576    -0.96219
  Fock        0.00000     0.00000     0.00000     0.00000     0.00000     0.00000
  -------------------------------------------------------------------------------------
  Total       0.29442     0.53300     0.46090     0.00913    -0.06938     0.15162
  in kB       1.91589     3.46844     2.99924     0.05944    -0.45148     0.98665
  external pressure =        2.79 kB  Pullay stress =        0.00 kB


 VOLUME and BASIS-vectors are now :
 -----------------------------------------------------------------------------
  energy-cutoff  :      520.00
  volume of cell :      246.21
      direct lattice vectors                 reciprocal lattice vectors
    -5.167598943 -0.074576236 -5.055532294     0.005057673 -0.000087598 -0.202971603
     4.967077984 -4.881593798  0.125877086     0.103286918 -0.102438934 -0.104065374
    -5.117005446 -5.032039282 -0.125334505    -0.100273852 -0.099349026  0.103962174

  length of vectors
     7.229664392  6.965462421  7.177804178     0.203034626  0.178861748  0.175308893


 FORCES acting on ions
    electron-ion (+dipol)            ewald-force                    non-local-force                 convergence-correction
 -----------------------------------------------------------------------------------------------
   -.113E+02 0.183E+01 -.128E+02   0.100E+02 -.245E+01 0.116E+02   0.125E+01 0.699E+00 0.125E+01   -.840E-02 -.715E-02 -.481E-02
   -.452E+01 0.657E+00 -.653E+01   0.387E+01 -.474E-02 0.707E+01   0.701E+00 -.695E+00 -.556E+00   -.564E-02 -.354E-02 -.294E-02
   0.158E+02 -.102E+02 0.738E+01   -.147E+02 0.919E+01 -.650E+01   -.111E+01 0.102E+01 -.991E+00   -.373E-02 0.390E-02 0.109E-01
   -.572E+01 0.142E+02 0.630E+01   0.482E+01 -.132E+02 -.550E+01   0.957E+00 -.903E+00 -.806E+00   0.402E-02 0.876E-02 0.578E-03
   -.350E+01 0.393E+01 -.491E+01   0.432E+01 -.308E+01 0.416E+01   -.867E+00 -.880E+00 0.768E+00   0.168E-02 0.245E-02 -.272E-02
   0.532E+01 0.303E+00 0.292E+01   -.476E+01 0.441E+00 -.358E+01   -.611E+00 -.705E+00 0.767E+00   0.441E-02 0.337E-02 0.884E-02
   -.506E+00 -.597E+01 0.457E+01   0.501E+00 0.621E+01 -.481E+01   -.650E-01 -.166E+00 0.343E+00   0.355E-02 -.491E-02 0.111E-01
   0.327E+00 -.128E+02 0.555E+01   -.345E+00 0.129E+02 -.558E+01   0.456E-01 -.134E+00 0.404E-01   -.790E-02 0.101E-01 -.261E-01
   0.425E+02 -.559E+02 -.392E+02   -.441E+02 0.575E+02 0.406E+02   0.163E+01 -.161E+01 -.140E+01   0.188E-01 -.409E-01 -.874E-02
   -.514E+02 0.331E+02 -.579E+02   0.530E+02 -.346E+02 0.600E+02   -.142E+01 0.136E+01 -.201E+01   -.255E-01 0.183E-01 -.420E-01
   0.552E+02 0.437E+02 0.498E+02   -.569E+02 -.457E+02 -.513E+02   0.159E+01 0.191E+01 0.140E+01   0.225E-01 0.182E-01 0.217E-01
   -.459E+02 -.566E+02 0.406E+02   0.476E+02 0.581E+02 -.423E+02   -.164E+01 -.130E+01 0.162E+01   -.164E-01 -.228E-01 0.165E-01
   0.324E+01 0.447E+02 0.376E+01   -.326E+01 -.453E+02 -.386E+01   0.502E-01 0.527E+00 0.119E+00   0.129E-01 0.405E-01 0.652E-02
 -----------------------------------------------------------------------------------------------
   -.501E+00 0.866E+00 -.526E+00   0.000E+00 0.711E-14 -.222E-14   0.515E+00 -.877E+00 0.552E+00   0.292E-03 0.262E-01 -.110E-01
 
 
 POSITION                                       TOTAL-FORCE (eV/Angst)
 -----------------------------------------------------------------------------------
     -1.99731     -0.45418     -1.88925        -0.040367      0.072132      0.013669
     -0.35343     -2.95673     -2.98519         0.042096     -0.046772     -0.021024
     -3.36543     -1.88160     -4.68300        -0.004318      0.038956     -0.093514
     -2.19789     -4.88888     -3.16512         0.060920      0.025284     -0.005863
     -2.93956     -3.16483     -0.29290        -0.040252     -0.022110      0.011961
     -4.89744     -3.12414     -2.16418        -0.050190      0.041228      0.119910
     -0.07161     -4.96857     -0.02578        -0.067700      0.073253      0.113445
     -2.63694     -2.63113     -2.54808         0.018592     -0.017903     -0.018824
     -6.41150     -3.89863     -3.82766         0.013260     -0.084767     -0.002173
     -4.04947     -6.22632     -3.89295         0.131620     -0.119546      0.017566
     -1.30000     -6.13503     -1.16987        -0.166393     -0.076954     -0.151527
      1.12165     -3.76520     -1.16808         0.063905      0.097341     -0.005063
      0.02052      0.26732      0.00901         0.038826      0.019857      0.021438
 -----------------------------------------------------------------------------------
    total drift:                                0.014436      0.015990      0.014785


--------------------------------------------------------------------------------------------------------



  FREE ENERGIE OF THE ION-ELECTRON SYSTEM (eV)
  ---------------------------------------------------
  free  energy   TOTEN  =       -54.26821091 eV

  energy  without entropy=      -54.26821091  energy(sigma->0) =      -54.26821091
 
 d Force = 0.1476801E-02[-0.832E-03, 0.379E-02]  d Energy = 0.6692357E-03 0.808E-03
 d Force =-0.2311670E+01[-0.234E+01,-0.228E+01]  d Ewald  =-0.2030388E+01-0.281E+00


--------------------------------------------------------------------------------------------------------


    POTLOK:  cpu time    0.5153: real time    0.5153


--------------------------------------------------------------------------------------------------------




--------------------------------------------------------------------------------------------------------


  
 reached required accuracy - stopping structural energy minimisation
     LOOP+:  cpu time  194.4897: real time  194.4909
    4ORBIT:  cpu time    0.0000: real time    0.0000
 


 total charge     
 
# of ion       s       p       d       tot
------------------------------------------
    1        2.015   0.044   0.000   2.059
    2        2.020   0.053   0.000   2.073
    3        2.012   0.040   0.000   2.052
    4        2.017   0.049   0.000   2.066
    5        2.020   0.053   0.000   2.074
    6        2.020   0.053   0.000   2.073
    7        0.971   1.380   0.000   2.351
    8        1.303   2.508   0.000   3.810
    9        1.336   2.450   0.000   3.786
   10        1.333   2.454   0.000   3.787
   11        1.334   2.441   0.000   3.775
   12        1.337   2.436   0.000   3.773
   13        1.588   3.550   0.000   5.139
--------------------------------------------------
tot         21.306  17.513   0.000  38.819
 


 magnetization (x)
 
# of ion       s       p       d       tot
------------------------------------------
    1       -0.000  -0.000   0.000  -0.000
    2       -0.000  -0.000   0.000  -0.000
    3       -0.000  -0.000   0.000  -0.000
    4       -0.000  -0.000   0.000  -0.000
    5       -0.000  -0.000   0.000  -0.000
    6       -0.000  -0.000   0.000  -0.000
    7        0.000   0.000   0.000   0.000
    8       -0.000   0.000   0.000   0.000
    9       -0.000   0.000   0.000  -0.000
   10       -0.000  -0.000   0.000  -0.000
   11       -0.000   0.000   0.000   0.000
   12       -0.000  -0.000   0.000  -0.000
   13       -0.000   0.000   0.000   0.000
--------------------------------------------------
tot         -0.000  -0.000   0.000  -0.000
 
 BZINTS: Fermi energy:  1.562459; 60.000000 electrons
         Band energy:-674.029030;  BLOECHL correction:  0.000000

 total amount of memory used by VASP MPI-rank0   172363. kBytes
=======================================================================

   base      :      30000. kBytes
   nonlr-proj:       4303. kBytes
   fftplans  :      11412. kBytes
   grid      :      43390. kBytes
   one-center:         79. kBytes
   wavefun   :      83179. kBytes
 
  
  
 General timing and accounting informations for this job:
 ========================================================
  
                  Total CPU time used (sec):     3075.415
                            User time (sec):     3071.534
                          System time (sec):        3.880
                         Elapsed time (sec):     3075.693
  
                   Maximum memory used (kb):      338192.
                   Average memory used (kb):           0.
  
                          Minor page faults:       469376
                          Major page faults:            0
                 Voluntary context switches:           45
