PROCAR lm decomposed
# of k-points:   36         # of bands:   44         # of ions:   13

 k-point     1 :    0.00000000 0.00000000 0.00000000     weight = 0.01562500

band     1 # energy  -43.05282477 # occ.  1.00000000
 
ion      s     py     pz     px    dxy    dyz    dz2    dxz  x2-y2    tot
    1  0.000  0.000  0.000  0.000  0.000  0.000  0.000  0.000  0.000  0.000
    2  0.000  0.000  0.000  0.000  0.000  0.000  0.000  0.000  0.000  0.000
    3  0.989  0.000  0.000  0.000  0.000  0.000  0.000  0.000  0.000  0.989
    4  0.000  0.000  0.000  0.000  0.000  0.000  0.000  0.000  0.000  0.000
    5  0.000  0.000  0.000  0.000  0.000  0.000  0.000  0.000  0.000  0.000
    6  0.000  0.000  0.000  0.000  0.000  0.000  0.000  0.000  0.000  0.000
    7  0.000  0.000  0.000  0.000  0.000  0.000  0.000  0.000  0.000  0.000
    8  0.000  0.000  0.000  0.000  0.000  0.000  0.000  0.000  0.000  0.000
    9  0.000  0.000  0.000  0.000  0.000  0.000  0.000  0.000  0.000  0.000
   10  0.000  0.000  0.000  0.000  0.000  0.000  0.000  0.000  0.000  0.000
   11  0.000  0.000  0.000  0.000  0.000  0.000  0.000  0.000  0.000  0.000
   12  0.000  0.000  0.000  0.000  0.000  0.000  0.000  0.000  0.000  0.000
   13  0.000  0.000  0.000  0.000  0.000  0.000  0.000  0.000  0.000  0.000
tot    0.989  0.000  0.000  0.000  0.000  0.000  0.000  0.000  0.000  0.989
 
band     2 # energy  -42.99966710 # occ.  1.00000000
 
ion      s     py     pz     px    dxy    dyz    dz2    dxz  x2-y2    tot
    1  0.989  0.000  0.000  0.000  0.000  0.000  0.000  0.000  0.000  0.989
    2  0.000  0.000  0.000  0.000  0.000  0.000  0.000  0.000  0.000  0.000
    3  0.000  0.000  0.000  0.000  0.000  0.000  0.000  0.000  0.000  0.000
    4  0.000  0.000  0.000  0.000  0.000  0.000  0.000  0.000  0.000  0.000
    5  0.000  0.000  0.000  0.000  0.000  0.000  0.000  0.000  0.000  0.000
    6  0.000  0.000  0.000  0.000  0.000  0.000  0.000  0.000  0.000  0.000
    7  0.000  0.000  0.000  0.000  0.000  0.000  0.000  0.000  0.000  0.000
    8  0.000  0.000  0.000  0.000  0.000  0.000  0.000  0.000  0.000  0.000
    9  0.000  0.000  0.000  0.000  0.000  0.000  0.000  0.000  0.000  0.000
   10  0.000  0.000  0.000  0.000  0.000  0.000  0.000  0.000  0.000  0.000
   11  0.000  0.000  0.000  0.000  0.000  0.000  0.000  0.000  0.000  0.000
   12  0.000  0.000  0.000  0.000  0.000  0.000  0.000  0.000  0.000  0.000
   13  0.000  0.000  0.000  0.000  0.000  0.000  0.000  0.000  0.000  0.000
tot    0.989  0.000  0.000  0.000  0.000  0.000  0.000  0.000  0.000  0.989
 
band     3 # energy  -42.93776738 # occ.  1.00000000
 
ion      s     py     pz     px    dxy    dyz    dz2    dxz  x2-y2    tot
    1  0.000  0.000  0.000  0.000  0.000  0.000  0.000  0.000  0.000  0.000
    2  0.002  0.000  0.000  0.000  0.000  0.000  0.000  0.000  0.000  0.002
    3  0.000  0.000  0.000  0.000  0.000  0.000  0.000  0.000  0.000  0.000
    4  0.988  0.000  0.000  0.000  0.000  0.000  0.000  0.000  0.000  0.988
    5  0.000  0.000  0.000  0.000  0.000  0.000  0.000  0.000  0.000  0.000
    6  0.000  0.000  0.000  0.000  0.000  0.000  0.000  0.000  0.000  0.000
    7  0.000  0.000  0.000  0.000  0.000  0.000  0.000  0.000  0.000  0.000
    8  0.000  0.000  0.000  0.000  0.000  0.000  0.000  0.000  0.000  0.000
    9  0.000  0.000  0.000  0.000  0.000  0.000  0.000  0.000  0.000  0.000
   10  0.000  0.000  0.000  0.000  0.000  0.000  0.000  0.000  0.000  0.000
   11  0.000  0.000  0.000  0.000  0.000  0.000  0.000  0.000  0.000  0.000
   12  0.000  0.000  0.000  0.000  0.000  0.000  0.000  0.000  0.000  0.000
   13  0.000  0.000  0.000  0.000  0.000  0.000  0.000  0.000  0.000  0.000
tot    0.989  0.000  0.000  0.000  0.000  0.000  0.000  0.000  0.000  0.989
 
band     4 # energy  -42.80508931 # occ.  1.00000000
 
ion      s     py     pz     px    dxy    dyz    dz2    dxz  x2-y2    tot
    1  0.000  0.000  0.000  0.000  0.000  0.000  0.000  0.000  0.000  0.000
    2  0.002  0.000  0.000  0.000  0.000  0.000  0.000  0.000  0.000  0.002
    3  0.000  0.000  0.000  0.000  0.000  0.000  0.000  0.000  0.000  0.000
    4  0.000  0.000  0.000  0.000  0.000  0.000  0.000  0.000  0.000  0.000
    5  0.958  0.000  0.000  0.000  0.000  0.000  0.000  0.000  0.000  0.958
    6  0.030  0.000  0.000  0.000  0.000  0.000  0.000  0.000  0.000  0.030
    7  0.000  0.000  0.000  0.000  0.000  0.000  0.000  0.000  0.000  0.000
    8  0.000  0.000  0.000  0.000  0.000  0.000  0.000  0.000  0.000  0.000
    9  0.000  0.000  0.000  0.000  0.000  0.000  0.000  0.000  0.000  0.000
   10  0.000  0.000  0.000  0.000  0.000  0.000  0.000  0.000  0.000  0.000
   11  0.000  0.000  0.000  0.000  0.000  0.000  0.000  0.000  0.000  0.000
   12  0.000  0.000  0.000  0.000  0.000  0.000  0.000  0.000  0.000  0.000
   13  0.000  0.000  0.000  0.000  0.000  0.000  0.000  0.000  0.000  0.000
tot    0.989  0.000  0.000  0.000  0.000  0.000  0.000  0.000  0.000  0.989
 
band     5 # energy  -42.77334549 # occ.  1.00000000
 
ion      s     py     pz     px    dxy    dyz    dz2    dxz  x2-y2    tot
    1  0.000  0.000  0.000  0.000  0.000  0.000  0.000  0.000  0.000  0.000
    2  0.982  0.000  0.000  0.000  0.000  0.000  0.000  0.000  0.000  0.982
    3  0.000  0.000  0.000  0.000  0.000  0.000  0.000  0.000  0.000  0.000
    4  0.002  0.000  0.000  0.000  0.000  0.000  0.000  0.000  0.000  0.002
    5  0.001  0.000  0.000  0.000  0.000  0.000  0.000  0.000  0.000  0.001
    6  0.005  0.000  0.000  0.000  0.000  0.000  0.000  0.000  0.000  0.005
    7  0.000  0.000  0.000  0.000  0.000  0.000  0.000  0.000  0.000  0.000
    8  0.000  0.000  0.000  0.000  0.000  0.000  0.000  0.000  0.000  0.000
    9  0.000  0.000  0.000  0.000  0.000  0.000  0.000  0.000  0.000  0.000
   10  0.000  0.000  0.000  0.000  0.000  0.000  0.000  0.000  0.000  0.000
   11  0.000  0.000  0.000  0.000  0.000  0.000  0.000  0.000  0.000  0.000
   12  0.000  0.000  0.000  0.000  0.000  0.000  0.000  0.000  0.000  0.000
   13  0.000  0.000  0.000  0.000  0.000  0.000  0.000  0.000  0.000  0.000
tot    0.989  0.000  0.000  0.000  0.000  0.000  0.000  0.000  0.000  0.989
 
band     6 # energy  -42.77087973 # occ.  1.00000000
 
ion      s     py     pz     px    dxy    dyz    dz2    dxz  x2-y2    tot
    1  0.000  0.000  0.000  0.000  0.000  0.000  0.000  0.000  0.000  0.000
    2  0.004  0.000  0.000  0.000  0.000  0.000  0.000  0.000  0.000  0.004
    3  0.000  0.000  0.000  0.000  0.000  0.000  0.000  0.000  0.000  0.000
    4  0.000  0.000  0.000  0.000  0.000  0.000  0.000  0.000  0.000  0.000
    5  0.031  0.000  0.000  0.000  0.000  0.000  0.000  0.000  0.000  0.031
    6  0.955  0.000  0.000  0.000  0.000  0.000  0.000  0.000  0.000  0.955
    7  0.000  0.000  0.000  0.000  0.000  0.000  0.000  0.000  0.000  0.000
    8  0.000  0.000  0.000  0.000  0.000  0.000  0.000  0.000  0.000  0.000
    9  0.000  0.000  0.000  0.000  0.000  0.000  0.000  0.000  0.000  0.000
   10  0.000  0.000  0.000  0.000  0.000  0.000  0.000  0.000  0.000  0.000
   11  0.000  0.000  0.000  0.000  0.000  0.000  0.000  0.000  0.000  0.000
   12  0.000  0.000  0.000  0.000  0.000  0.000  0.000  0.000  0.000  0.000
   13  0.000  0.000  0.000  0.000  0.000  0.000  0.000  0.000  0.000  0.000
tot    0.989  0.000  0.000  0.000  0.000  0.000  0.000  0.000  0.000  0.989
 
band     7 # energy  -13.30684219 # occ.  1.00000000
 
ion      s     py     pz     px    dxy    dyz    dz2    dxz  x2-y2    tot
    1  0.000  0.000  0.000  0.000  0.000  0.000  0.000  0.000  0.000  0.000
    2  0.000  0.000  0.000  0.000  0.000  0.000  0.000  0.000  0.000  0.000
    3  0.000  0.000  0.000  0.000  0.000  0.000  0.000  0.000  0.000  0.000
    4  0.000  0.000  0.000  0.000  0.000  0.000  0.000  0.000  0.000  0.000
    5  0.000  0.000  0.000  0.000  0.000  0.000  0.000  0.000  0.000  0.000
    6  0.000  0.000  0.000  0.000  0.000  0.000  0.000  0.000  0.000  0.000
    7  0.271  0.000  0.000  0.000  0.000  0.000  0.000  0.000  0.000  0.271
    8  0.000  0.000  0.000  0.000  0.000  0.000  0.000  0.000  0.000  0.000
    9  0.082  0.003  0.003  0.003  0.000  0.000  0.000  0.000  0.000  0.091
   10  0.086  0.003  0.003  0.003  0.000  0.000  0.000  0.000  0.000  0.096
   11  0.080  0.003  0.003  0.004  0.000  0.000  0.000  0.000  0.000  0.090
   12  0.080  0.004  0.003  0.003  0.000  0.000  0.000  0.000  0.000  0.090
   13  0.005  0.000  0.000  0.000  0.000  0.000  0.000  0.000  0.000  0.005
tot    0.605  0.013  0.013  0.014  0.000  0.000  0.000  0.000  0.000  0.645
 
band     8 # energy  -12.47106135 # occ.  1.00000000
 
ion      s     py     pz     px    dxy    dyz    dz2    dxz  x2-y2    tot
    1  0.000  0.000  0.000  0.000  0.000  0.000  0.000  0.000  0.000  0.000
    2  0.000  0.000  0.000  0.000  0.000  0.000  0.000  0.000  0.000  0.000
    3  0.000  0.000  0.000  0.000  0.000  0.000  0.000  0.000  0.000  0.000
    4  0.000  0.000  0.000  0.000  0.000  0.000  0.000  0.000  0.000  0.000
    5  0.000  0.000  0.000  0.000  0.000  0.000  0.000  0.000  0.000  0.000
    6  0.000  0.000  0.000  0.000  0.000  0.000  0.000  0.000  0.000  0.000
    7  0.003  0.000  0.000  0.000  0.000  0.000  0.000  0.000  0.000  0.003
    8  0.000  0.000  0.000  0.000  0.000  0.000  0.000  0.000  0.000  0.000
    9  0.001  0.000  0.000  0.000  0.000  0.000  0.000  0.000  0.000  0.001
   10  0.000  0.000  0.000  0.000  0.000  0.000  0.000  0.000  0.000  0.001
   11  0.000  0.000  0.000  0.000  0.000  0.000  0.000  0.000  0.000  0.000
   12  0.001  0.000  0.000  0.000  0.000  0.000  0.000  0.000  0.000  0.001
   13  0.785  0.000  0.000  0.000  0.000  0.000  0.000  0.000  0.000  0.785
tot    0.790  0.000  0.000  0.000  0.000  0.000  0.000  0.000  0.000  0.791
 
band     9 # energy  -10.30271513 # occ.  1.00000000
 
ion      s     py     pz     px    dxy    dyz    dz2    dxz  x2-y2    tot
    1  0.000  0.000  0.000  0.000  0.000  0.000  0.000  0.000  0.000  0.000
    2  0.000  0.000  0.000  0.000  0.000  0.000  0.000  0.000  0.000  0.000
    3  0.000  0.000  0.000  0.000  0.000  0.000  0.000  0.000  0.000  0.000
    4  0.000  0.000  0.000  0.000  0.000  0.000  0.000  0.000  0.000  0.000
    5  0.000  0.000  0.000  0.000  0.000  0.000  0.000  0.000  0.000  0.000
    6  0.000  0.000  0.000  0.000  0.000  0.000  0.000  0.000  0.000  0.000
    7  0.000  0.002  0.014  0.037  0.000  0.000  0.000  0.000  0.000  0.052
    8  0.000  0.000  0.000  0.000  0.000  0.000  0.000  0.000  0.000  0.000
    9  0.038  0.000  0.001  0.000  0.000  0.000  0.000  0.000  0.000  0.039
   10  0.367  0.002  0.002  0.001  0.000  0.000  0.000  0.000  0.000  0.373
   11  0.212  0.002  0.001  0.001  0.000  0.000  0.000  0.000  0.000  0.217
   12  0.002  0.000  0.000  0.000  0.000  0.000  0.000  0.000  0.000  0.003
   13  0.000  0.000  0.000  0.000  0.000  0.000  0.000  0.000  0.000  0.000
tot    0.620  0.007  0.018  0.040  0.000  0.000  0.000  0.000  0.000  0.685
 
band    10 # energy  -10.23805126 # occ.  1.00000000
 
ion      s     py     pz     px    dxy    dyz    dz2    dxz  x2-y2    tot
    1  0.000  0.000  0.000  0.000  0.000  0.000  0.000  0.000  0.000  0.000
    2  0.000  0.000  0.000  0.000  0.000  0.000  0.000  0.000  0.000  0.000
    3  0.000  0.000  0.000  0.000  0.000  0.000  0.000  0.000  0.000  0.000
    4  0.000  0.000  0.000  0.000  0.000  0.000  0.000  0.000  0.000  0.000
    5  0.000  0.000  0.000  0.000  0.000  0.000  0.000  0.000  0.000  0.000
    6  0.000  0.000  0.000  0.000  0.000  0.000  0.000  0.000  0.000  0.000
    7  0.000  0.042  0.004  0.008  0.000  0.000  0.000  0.000  0.000  0.055
    8  0.000  0.000  0.000  0.000  0.000  0.000  0.000  0.000  0.000  0.000
    9  0.009  0.000  0.000  0.000  0.000  0.000  0.000  0.000  0.000  0.010
   10  0.098  0.000  0.001  0.001  0.000  0.000  0.000  0.000  0.000  0.100
   11  0.146  0.000  0.002  0.001  0.000  0.000  0.000  0.000  0.000  0.149
   12  0.365  0.002  0.003  0.003  0.000  0.000  0.000  0.000  0.000  0.372
   13  0.000  0.000  0.000  0.000  0.000  0.000  0.000  0.000  0.000  0.000
tot    0.619  0.045  0.009  0.014  0.000  0.000  0.000  0.000  0.000  0.687
 
band    11 # energy  -10.21519500 # occ.  1.00000000
 
ion      s     py     pz     px    dxy    dyz    dz2    dxz  x2-y2    tot
    1  0.000  0.000  0.000  0.000  0.000  0.000  0.000  0.000  0.000  0.000
    2  0.000  0.000  0.000  0.000  0.000  0.000  0.000  0.000  0.000  0.000
    3  0.000  0.000  0.000  0.000  0.000  0.000  0.000  0.000  0.000  0.000
    4  0.000  0.000  0.000  0.000  0.000  0.000  0.000  0.000  0.000  0.000
    5  0.000  0.000  0.000  0.000  0.000  0.000  0.000  0.000  0.000  0.001
    6  0.000  0.000  0.000  0.000  0.000  0.000  0.000  0.000  0.000  0.000
    7  0.000  0.008  0.035  0.008  0.000  0.000  0.000  0.000  0.000  0.052
    8  0.000  0.000  0.000  0.000  0.000  0.000  0.000  0.000  0.000  0.000
    9  0.425  0.003  0.002  0.003  0.000  0.000  0.000  0.000  0.000  0.432
   10  0.000  0.000  0.000  0.000  0.000  0.000  0.000  0.000  0.000  0.000
   11  0.101  0.001  0.000  0.002  0.000  0.000  0.000  0.000  0.000  0.103
   12  0.095  0.002  0.000  0.001  0.000  0.000  0.000  0.000  0.000  0.097
   13  0.000  0.000  0.000  0.000  0.000  0.000  0.000  0.000  0.000  0.000
tot    0.622  0.013  0.038  0.013  0.000  0.000  0.000  0.000  0.000  0.687
 
band    12 # energy   -8.63785513 # occ.  1.00000000
 
ion      s     py     pz     px    dxy    dyz    dz2    dxz  x2-y2    tot
    1  0.001  0.000  0.000  0.000  0.000  0.000  0.000  0.000  0.000  0.001
    2  0.001  0.000  0.000  0.001  0.000  0.000  0.000  0.000  0.000  0.001
    3  0.001  0.000  0.000  0.000  0.000  0.000  0.000  0.000  0.000  0.001
    4  0.001  0.000  0.000  0.000  0.000  0.000  0.000  0.000  0.000  0.001
    5  0.001  0.000  0.001  0.000  0.000  0.000  0.000  0.000  0.000  0.002
    6  0.001  0.000  0.000  0.001  0.000  0.000  0.000  0.000  0.000  0.002
    7  0.001  0.000  0.000  0.000  0.000  0.000  0.000  0.000  0.000  0.001
    8  0.646  0.000  0.000  0.000  0.000  0.000  0.000  0.000  0.000  0.646
    9  0.000  0.000  0.000  0.000  0.000  0.000  0.000  0.000  0.000  0.000
   10  0.000  0.000  0.000  0.000  0.000  0.000  0.000  0.000  0.000  0.000
   11  0.000  0.000  0.000  0.000  0.000  0.000  0.000  0.000  0.000  0.000
   12  0.000  0.000  0.000  0.000  0.000  0.000  0.000  0.000  0.000  0.000
   13  0.000  0.000  0.000  0.000  0.000  0.000  0.000  0.000  0.000  0.000
tot    0.653  0.001  0.001  0.001  0.000  0.000  0.000  0.000  0.000  0.656
 
band    13 # energy   -6.50880236 # occ.  1.00000000
 
ion      s     py     pz     px    dxy    dyz    dz2    dxz  x2-y2    tot
    1  0.000  0.000  0.000  0.000  0.000  0.000  0.000  0.000  0.000  0.001
    2  0.001  0.000  0.000  0.000  0.000  0.000  0.000  0.000  0.000  0.001
    3  0.000  0.000  0.000  0.000  0.000  0.000  0.000  0.000  0.000  0.001
    4  0.001  0.000  0.000  0.000  0.000  0.000  0.000  0.000  0.000  0.001
    5  0.001  0.000  0.000  0.000  0.000  0.000  0.000  0.000  0.000  0.001
    6  0.001  0.000  0.000  0.000  0.000  0.000  0.000  0.000  0.000  0.001
    7  0.190  0.000  0.000  0.000  0.000  0.000  0.000  0.000  0.000  0.190
    8  0.001  0.000  0.000  0.000  0.000  0.000  0.000  0.000  0.000  0.001
    9  0.064  0.011  0.014  0.012  0.000  0.000  0.000  0.000  0.000  0.101
   10  0.067  0.013  0.011  0.012  0.000  0.000  0.000  0.000  0.000  0.103
   11  0.075  0.010  0.010  0.011  0.000  0.000  0.000  0.000  0.000  0.107
   12  0.073  0.011  0.011  0.012  0.000  0.000  0.000  0.000  0.000  0.107
   13  0.001  0.000  0.000  0.000  0.000  0.000  0.000  0.000  0.000  0.001
tot    0.474  0.046  0.047  0.047  0.000  0.000  0.000  0.000  0.000  0.614
 
band    14 # energy   -3.09258144 # occ.  1.00000000
 
ion      s     py     pz     px    dxy    dyz    dz2    dxz  x2-y2    tot
    1  0.000  0.000  0.000  0.000  0.000  0.000  0.000  0.000  0.000  0.000
    2  0.002  0.000  0.000  0.001  0.000  0.000  0.000  0.000  0.000  0.003
    3  0.000  0.000  0.000  0.000  0.000  0.000  0.000  0.000  0.000  0.000
    4  0.000  0.000  0.000  0.000  0.000  0.000  0.000  0.000  0.000  0.000
    5  0.002  0.000  0.000  0.000  0.000  0.000  0.000  0.000  0.000  0.002
    6  0.002  0.000  0.000  0.001  0.000  0.000  0.000  0.000  0.000  0.003
    7  0.000  0.000  0.048  0.099  0.000  0.000  0.000  0.000  0.000  0.147
    8  0.000  0.000  0.001  0.001  0.000  0.000  0.000  0.000  0.000  0.002
    9  0.001  0.001  0.031  0.014  0.000  0.000  0.000  0.000  0.000  0.047
   10  0.022  0.079  0.023  0.014  0.000  0.000  0.000  0.000  0.000  0.138
   11  0.024  0.067  0.024  0.014  0.000  0.000  0.000  0.000  0.000  0.130
   12  0.001  0.003  0.023  0.012  0.000  0.000  0.000  0.000  0.000  0.038
   13  0.000  0.000  0.002  0.004  0.000  0.000  0.000  0.000  0.000  0.006
tot    0.054  0.151  0.152  0.159  0.000  0.000  0.000  0.000  0.000  0.516
 
band    15 # energy   -2.98234086 # occ.  1.00000000
 
ion      s     py     pz     px    dxy    dyz    dz2    dxz  x2-y2    tot
    1  0.002  0.001  0.000  0.000  0.000  0.000  0.000  0.000  0.000  0.003
    2  0.000  0.000  0.000  0.000  0.000  0.000  0.000  0.000  0.000  0.000
    3  0.000  0.000  0.000  0.000  0.000  0.000  0.000  0.000  0.000  0.000
    4  0.003  0.001  0.000  0.000  0.000  0.000  0.000  0.000  0.000  0.003
    5  0.000  0.000  0.000  0.000  0.000  0.000  0.000  0.000  0.000  0.000
    6  0.000  0.000  0.000  0.000  0.000  0.000  0.000  0.000  0.000  0.000
    7  0.000  0.150  0.000  0.000  0.000  0.000  0.000  0.000  0.000  0.150
    8  0.000  0.002  0.000  0.000  0.000  0.000  0.000  0.000  0.000  0.002
    9  0.009  0.001  0.038  0.032  0.000  0.000  0.000  0.000  0.000  0.079
   10  0.013  0.000  0.032  0.044  0.000  0.000  0.000  0.000  0.000  0.090
   11  0.014  0.000  0.039  0.038  0.000  0.000  0.000  0.000  0.000  0.091
   12  0.014  0.000  0.039  0.041  0.000  0.000  0.000  0.000  0.000  0.094
   13  0.000  0.004  0.000  0.000  0.000  0.000  0.000  0.000  0.000  0.004
tot    0.054  0.157  0.149  0.156  0.000  0.000  0.000  0.000  0.000  0.516
 
band    16 # energy   -2.87779515 # occ.  1.00000000
 
ion      s     py     pz     px    dxy    dyz    dz2    dxz  x2-y2    tot
    1  0.000  0.000  0.000  0.000  0.000  0.000  0.000  0.000  0.000  0.000
    2  0.001  0.000  0.000  0.000  0.000  0.000  0.000  0.000  0.000  0.001
    3  0.001  0.000  0.000  0.000  0.000  0.000  0.000  0.000  0.000  0.002
    4  0.000  0.000  0.000  0.000  0.000  0.000  0.000  0.000  0.000  0.000
    5  0.001  0.000  0.000  0.000  0.000  0.000  0.000  0.000  0.000  0.002
    6  0.000  0.000  0.000  0.000  0.000  0.000  0.000  0.000  0.000  0.001
    7  0.000  0.000  0.102  0.049  0.000  0.000  0.000  0.000  0.000  0.152
    8  0.000  0.000  0.001  0.001  0.000  0.000  0.000  0.000  0.000  0.002
    9  0.027  0.069  0.017  0.027  0.000  0.000  0.000  0.000  0.000  0.141
   10  0.000  0.002  0.016  0.025  0.000  0.000  0.000  0.000  0.000  0.044
   11  0.001  0.001  0.011  0.028  0.000  0.000  0.000  0.000  0.000  0.042
   12  0.026  0.078  0.009  0.020  0.000  0.000  0.000  0.000  0.000  0.133
   13  0.000  0.000  0.002  0.001  0.000  0.000  0.000  0.000  0.000  0.002
tot    0.059  0.151  0.160  0.151  0.000  0.000  0.000  0.000  0.000  0.521
 
band    17 # energy   -1.20635165 # occ.  1.00000000
 
ion      s     py     pz     px    dxy    dyz    dz2    dxz  x2-y2    tot
    1  0.000  0.000  0.000  0.000  0.000  0.000  0.000  0.000  0.000  0.000
    2  0.000  0.000  0.000  0.000  0.000  0.000  0.000  0.000  0.000  0.001
    3  0.000  0.000  0.000  0.000  0.000  0.000  0.000  0.000  0.000  0.000
    4  0.002  0.000  0.001  0.001  0.000  0.000  0.000  0.000  0.000  0.004
    5  0.002  0.000  0.000  0.001  0.000  0.000  0.000  0.000  0.000  0.004
    6  0.003  0.000  0.001  0.000  0.000  0.000  0.000  0.000  0.000  0.004
    7  0.000  0.001  0.001  0.002  0.000  0.000  0.000  0.000  0.000  0.005
    8  0.000  0.000  0.005  0.006  0.000  0.000  0.000  0.000  0.000  0.011
    9  0.000  0.000  0.001  0.000  0.000  0.000  0.000  0.000  0.000  0.001
   10  0.000  0.003  0.000  0.002  0.000  0.000  0.000  0.000  0.000  0.005
   11  0.000  0.003  0.000  0.001  0.000  0.000  0.000  0.000  0.000  0.004
   12  0.000  0.001  0.002  0.004  0.000  0.000  0.000  0.000  0.000  0.008
   13  0.000  0.096  0.154  0.267  0.000  0.000  0.000  0.000  0.000  0.517
tot    0.008  0.107  0.164  0.285  0.000  0.000  0.000  0.000  0.000  0.564
 
band    18 # energy   -1.14245889 # occ.  1.00000000
 
ion      s     py     pz     px    dxy    dyz    dz2    dxz  x2-y2    tot
    1  0.001  0.000  0.000  0.000  0.000  0.000  0.000  0.000  0.000  0.002
    2  0.003  0.001  0.002  0.000  0.000  0.000  0.000  0.000  0.000  0.006
    3  0.000  0.000  0.000  0.000  0.000  0.000  0.000  0.000  0.000  0.001
    4  0.000  0.000  0.000  0.001  0.000  0.000  0.000  0.000  0.000  0.001
    5  0.001  0.000  0.000  0.001  0.000  0.000  0.000  0.000  0.000  0.001
    6  0.000  0.001  0.000  0.000  0.000  0.000  0.000  0.000  0.000  0.001
    7  0.000  0.005  0.004  0.001  0.000  0.000  0.000  0.000  0.000  0.010
    8  0.000  0.000  0.003  0.000  0.000  0.000  0.000  0.000  0.000  0.003
    9  0.000  0.000  0.012  0.002  0.000  0.000  0.000  0.000  0.000  0.014
   10  0.000  0.016  0.007  0.004  0.000  0.000  0.000  0.000  0.000  0.028
   11  0.001  0.024  0.002  0.001  0.000  0.000  0.000  0.000  0.000  0.027
   12  0.000  0.000  0.001  0.002  0.000  0.000  0.000  0.000  0.000  0.003
   13  0.000  0.231  0.225  0.002  0.000  0.000  0.000  0.000  0.000  0.458
tot    0.007  0.278  0.256  0.013  0.000  0.000  0.000  0.000  0.000  0.554
 
band    19 # energy   -1.05156445 # occ.  1.00000000
 
ion      s     py     pz     px    dxy    dyz    dz2    dxz  x2-y2    tot
    1  0.000  0.000  0.000  0.001  0.000  0.000  0.000  0.000  0.000  0.001
    2  0.000  0.000  0.000  0.000  0.000  0.000  0.000  0.000  0.000  0.001
    3  0.001  0.001  0.000  0.000  0.000  0.000  0.000  0.000  0.000  0.003
    4  0.000  0.000  0.000  0.000  0.000  0.000  0.000  0.000  0.000  0.001
    5  0.000  0.001  0.000  0.000  0.000  0.000  0.000  0.000  0.000  0.001
    6  0.001  0.000  0.001  0.000  0.000  0.000  0.000  0.000  0.000  0.003
    7  0.000  0.002  0.004  0.005  0.000  0.000  0.000  0.000  0.000  0.011
    8  0.000  0.001  0.001  0.001  0.000  0.000  0.000  0.000  0.000  0.002
    9  0.000  0.000  0.000  0.008  0.000  0.000  0.000  0.000  0.000  0.009
   10  0.001  0.017  0.004  0.003  0.000  0.000  0.000  0.000  0.000  0.024
   11  0.000  0.004  0.008  0.011  0.000  0.000  0.000  0.000  0.000  0.024
   12  0.000  0.001  0.007  0.000  0.000  0.000  0.000  0.000  0.000  0.008
   13  0.000  0.111  0.126  0.233  0.000  0.000  0.000  0.000  0.000  0.471
tot    0.004  0.139  0.152  0.262  0.000  0.000  0.000  0.000  0.000  0.557
 
band    20 # energy   -0.71404605 # occ.  1.00000000
 
ion      s     py     pz     px    dxy    dyz    dz2    dxz  x2-y2    tot
    1  0.000  0.000  0.000  0.001  0.000  0.000  0.000  0.000  0.000  0.002
    2  0.003  0.000  0.000  0.001  0.000  0.000  0.000  0.000  0.000  0.005
    3  0.000  0.000  0.000  0.001  0.000  0.000  0.000  0.000  0.000  0.002
    4  0.001  0.000  0.000  0.001  0.000  0.000  0.000  0.000  0.000  0.002
    5  0.002  0.000  0.000  0.000  0.000  0.000  0.000  0.000  0.000  0.003
    6  0.003  0.000  0.001  0.001  0.000  0.000  0.000  0.000  0.000  0.004
    7  0.000  0.000  0.000  0.000  0.000  0.000  0.000  0.000  0.000  0.000
    8  0.000  0.000  0.000  0.000  0.000  0.000  0.000  0.000  0.000  0.001
    9  0.000  0.007  0.041  0.066  0.000  0.000  0.000  0.000  0.000  0.113
   10  0.000  0.012  0.024  0.070  0.000  0.000  0.000  0.000  0.000  0.107
   11  0.000  0.004  0.031  0.053  0.000  0.000  0.000  0.000  0.000  0.088
   12  0.000  0.012  0.019  0.068  0.000  0.000  0.000  0.000  0.000  0.099
   13  0.000  0.011  0.001  0.001  0.000  0.000  0.000  0.000  0.000  0.013
tot    0.010  0.047  0.119  0.262  0.000  0.000  0.000  0.000  0.000  0.437
 
band    21 # energy   -0.53984754 # occ.  1.00000000
 
ion      s     py     pz     px    dxy    dyz    dz2    dxz  x2-y2    tot
    1  0.001  0.001  0.000  0.000  0.000  0.000  0.000  0.000  0.000  0.003
    2  0.000  0.001  0.000  0.000  0.000  0.000  0.000  0.000  0.000  0.001
    3  0.002  0.000  0.000  0.000  0.000  0.000  0.000  0.000  0.000  0.003
    4  0.004  0.000  0.000  0.000  0.000  0.000  0.000  0.000  0.000  0.005
    5  0.002  0.001  0.000  0.000  0.000  0.000  0.000  0.000  0.000  0.003
    6  0.000  0.001  0.000  0.000  0.000  0.000  0.000  0.000  0.000  0.001
    7  0.000  0.000  0.001  0.000  0.000  0.000  0.000  0.000  0.000  0.001
    8  0.000  0.010  0.001  0.001  0.000  0.000  0.000  0.000  0.000  0.012
    9  0.000  0.048  0.050  0.000  0.000  0.000  0.000  0.000  0.000  0.098
   10  0.000  0.048  0.049  0.002  0.000  0.000  0.000  0.000  0.000  0.100
   11  0.000  0.054  0.020  0.002  0.000  0.000  0.000  0.000  0.000  0.076
   12  0.000  0.048  0.030  0.000  0.000  0.000  0.000  0.000  0.000  0.078
   13  0.000  0.071  0.004  0.004  0.000  0.000  0.000  0.000  0.000  0.079
tot    0.010  0.283  0.158  0.009  0.000  0.000  0.000  0.000  0.000  0.459
 
band    22 # energy   -0.06517302 # occ.  1.00000000
 
ion      s     py     pz     px    dxy    dyz    dz2    dxz  x2-y2    tot
    1  0.002  0.001  0.001  0.000  0.000  0.000  0.000  0.000  0.000  0.004
    2  0.004  0.001  0.000  0.001  0.000  0.000  0.000  0.000  0.000  0.006
    3  0.000  0.001  0.000  0.001  0.000  0.000  0.000  0.000  0.000  0.002
    4  0.001  0.000  0.000  0.001  0.000  0.000  0.000  0.000  0.000  0.002
    5  0.000  0.000  0.001  0.000  0.000  0.000  0.000  0.000  0.000  0.001
    6  0.005  0.000  0.001  0.002  0.000  0.000  0.000  0.000  0.000  0.007
    7  0.000  0.005  0.000  0.015  0.000  0.000  0.000  0.000  0.000  0.020
    8  0.000  0.026  0.000  0.099  0.000  0.000  0.000  0.000  0.000  0.125
    9  0.000  0.010  0.000  0.049  0.000  0.000  0.000  0.000  0.000  0.060
   10  0.000  0.012  0.000  0.050  0.000  0.000  0.000  0.000  0.000  0.062
   11  0.001  0.013  0.001  0.073  0.000  0.000  0.000  0.000  0.000  0.087
   12  0.002  0.032  0.001  0.052  0.000  0.000  0.000  0.000  0.000  0.087
   13  0.000  0.005  0.009  0.007  0.000  0.000  0.000  0.000  0.000  0.021
tot    0.014  0.105  0.013  0.351  0.000  0.000  0.000  0.000  0.000  0.484
 
band    23 # energy    0.03611246 # occ.  1.00000000
 
ion      s     py     pz     px    dxy    dyz    dz2    dxz  x2-y2    tot
    1  0.000  0.000  0.001  0.000  0.000  0.000  0.000  0.000  0.000  0.001
    2  0.000  0.001  0.001  0.000  0.000  0.000  0.000  0.000  0.000  0.002
    3  0.005  0.000  0.001  0.000  0.000  0.000  0.000  0.000  0.000  0.007
    4  0.001  0.000  0.001  0.001  0.000  0.000  0.000  0.000  0.000  0.003
    5  0.005  0.000  0.001  0.001  0.000  0.000  0.000  0.000  0.000  0.007
    6  0.000  0.000  0.001  0.000  0.000  0.000  0.000  0.000  0.000  0.001
    7  0.000  0.004  0.013  0.001  0.000  0.000  0.000  0.000  0.000  0.017
    8  0.000  0.021  0.104  0.005  0.000  0.000  0.000  0.000  0.000  0.130
    9  0.000  0.007  0.041  0.003  0.000  0.000  0.000  0.000  0.000  0.050
   10  0.001  0.013  0.060  0.012  0.000  0.000  0.000  0.000  0.000  0.087
   11  0.000  0.007  0.062  0.003  0.000  0.000  0.000  0.000  0.000  0.072
   12  0.001  0.017  0.056  0.000  0.000  0.000  0.000  0.000  0.000  0.074
   13  0.000  0.008  0.012  0.016  0.000  0.000  0.000  0.000  0.000  0.036
tot    0.013  0.078  0.354  0.042  0.000  0.000  0.000  0.000  0.000  0.488
 
band    24 # energy    0.06744872 # occ.  1.00000000
 
ion      s     py     pz     px    dxy    dyz    dz2    dxz  x2-y2    tot
    1  0.005  0.000  0.000  0.001  0.000  0.000  0.000  0.000  0.000  0.006
    2  0.001  0.000  0.000  0.001  0.000  0.000  0.000  0.000  0.000  0.003
    3  0.001  0.000  0.000  0.000  0.000  0.000  0.000  0.000  0.000  0.002
    4  0.002  0.003  0.000  0.000  0.000  0.000  0.000  0.000  0.000  0.005
    5  0.000  0.001  0.000  0.001  0.000  0.000  0.000  0.000  0.000  0.002
    6  0.001  0.001  0.001  0.000  0.000  0.000  0.000  0.000  0.000  0.003
    7  0.000  0.011  0.006  0.004  0.000  0.000  0.000  0.000  0.000  0.020
    8  0.000  0.085  0.024  0.029  0.000  0.000  0.000  0.000  0.000  0.138
    9  0.002  0.080  0.014  0.020  0.000  0.000  0.000  0.000  0.000  0.116
   10  0.000  0.022  0.001  0.015  0.000  0.000  0.000  0.000  0.000  0.038
   11  0.001  0.026  0.026  0.003  0.000  0.000  0.000  0.000  0.000  0.056
   12  0.000  0.050  0.024  0.011  0.000  0.000  0.000  0.000  0.000  0.085
   13  0.000  0.003  0.002  0.003  0.000  0.000  0.000  0.000  0.000  0.008
tot    0.013  0.282  0.099  0.087  0.000  0.000  0.000  0.000  0.000  0.481
 
band    25 # energy    0.91695017 # occ.  1.00000000
 
ion      s     py     pz     px    dxy    dyz    dz2    dxz  x2-y2    tot
    1  0.001  0.003  0.000  0.000  0.000  0.000  0.000  0.000  0.000  0.005
    2  0.000  0.000  0.001  0.003  0.000  0.000  0.000  0.000  0.000  0.005
    3  0.000  0.000  0.000  0.000  0.000  0.000  0.000  0.000  0.000  0.000
    4  0.000  0.002  0.001  0.000  0.000  0.000  0.000  0.000  0.000  0.003
    5  0.000  0.000  0.000  0.000  0.000  0.000  0.000  0.000  0.000  0.001
    6  0.001  0.000  0.000  0.004  0.000  0.000  0.000  0.000  0.000  0.005
    7  0.000  0.001  0.000  0.001  0.000  0.000  0.000  0.000  0.000  0.002
    8  0.000  0.085  0.007  0.139  0.000  0.000  0.000  0.000  0.000  0.230
    9  0.000  0.005  0.001  0.011  0.000  0.000  0.000  0.000  0.000  0.017
   10  0.000  0.075  0.000  0.077  0.000  0.000  0.000  0.000  0.000  0.153
   11  0.000  0.003  0.008  0.029  0.000  0.000  0.000  0.000  0.000  0.040
   12  0.000  0.021  0.005  0.000  0.000  0.000  0.000  0.000  0.000  0.026
   13  0.000  0.017  0.000  0.024  0.000  0.000  0.000  0.000  0.000  0.041